 vasp.5.3.5 31Mar14 (build Nov 06 2015 22:54:15) complex                        
  
 executed on             LinuxIFC date 2017.11.09  01:54:02
 running on   24 total cores
 distrk:  each k-point on   24 cores,    1 groups
 distr:  one band on NCORES_PER_BAND=  24 cores,    1 groups


--------------------------------------------------------------------------------------------------------


 INCAR:
 POTCAR:    PAW_PBE Cu 22Jun2005                  
 POTCAR:    PAW_PBE C 08Apr2002                   
 POTCAR:    PAW_PBE H 15Jun2001                   

 ----------------------------------------------------------------------------- 
|                                                                             |
|           W    W    AA    RRRRR   N    N  II  N    N   GGGG   !!!           |
|           W    W   A  A   R    R  NN   N  II  NN   N  G    G  !!!           |
|           W    W  A    A  R    R  N N  N  II  N N  N  G       !!!           |
|           W WW W  AAAAAA  RRRRR   N  N N  II  N  N N  G  GGG   !            |
|           WW  WW  A    A  R   R   N   NN  II  N   NN  G    G                |
|           W    W  A    A  R    R  N    N  II  N    N   GGGG   !!!           |
|                                                                             |
|      For optimal performance we recommend to set                            |
|        NCORE= 4 - approx SQRT( number of cores)                             |
|      NCORE specifies how many cores store one orbital (NPAR=cpu/NCORE).     |
|      This setting can  greatly improve the performance of VASP for DFT.     |
|      The default, NPAR=number of cores might be grossly inefficient         |
|      on modern multi-core architectures or massively parallel machines.     |
|      Do your own testing !!!!                                               |
|      Unfortunately you need to use the default for GW and RPA calculations. |
|      (for HF NCORE is supported but not extensively tested yet)             |
|                                                                             |
 ----------------------------------------------------------------------------- 

 POTCAR:    PAW_PBE Cu 22Jun2005                  
   VRHFIN =Cu: d10 p1                                                           
   LEXCH  = PE                                                                  
   EATOM  =  1390.9808 eV,  102.2342 Ry                                         
                                                                                
   TITEL  = PAW_PBE Cu 22Jun2005                                                
   LULTRA =        F    use ultrasoft PP ?                                      
   IUNSCR =        1    unscreen: 0-lin 1-nonlin 2-no                           
   RPACOR =    2.000    partial core radius                                     
   POMASS =   63.546; ZVAL   =   11.000    mass and valenz                      
   RCORE  =    2.300    outmost cutoff radius                                   
   RWIGS  =    2.200; RWIGS  =    1.164    wigner-seitz radius (au A)           
   ENMAX  =  295.446; ENMIN  =  221.585 eV                                      
   ICORE  =        3    local potential                                         
   LCOR   =        T    correct aug charges                                     
   LPAW   =        T    paw PP                                                  
   EAUG   =  586.980                                                            
   DEXC   =    0.000                                                            
   RMAX   =    2.344    core radius for proj-oper                               
   RAUG   =    1.300    factor for augmentation sphere                          
   RDEP   =    2.302    radius for radial grids                                 
   RDEPT  =    1.771    core radius for aug-charge                              
                                                                                
   Atomic configuration                                                         
    9 entries                                                                   
     n  l   j            E        occ.                                          
     1  0  0.50     -8850.2468   2.0000                                         
     2  0  0.50     -1062.3498   2.0000                                         
     2  1  1.50      -916.8226   6.0000                                         
     3  0  0.50      -114.6929   2.0000                                         
     3  1  1.50       -72.1325   6.0000                                         
     3  2  2.50        -5.0394  10.0000                                         
     4  0  0.50        -4.6097   1.0000                                         
     4  1  0.50        -4.0817   0.0000                                         
     4  3  2.50        -1.3606   0.0000                                         
   Description                                                                  
     l       E           TYP  RCUT    TYP  RCUT                                 
     2     -5.0393973     23  2.200                                             
     2     10.8846608     23  2.200                                             
     0     -4.6097109     23  2.200                                             
     0      8.2520465     23  2.200                                             
     1     -2.7211652     23  2.200                                             
     1     21.7055443     23  2.200                                             
     3      2.7211652     23  2.300                                             
  local pseudopotential read in
  partial core-charges read in
  partial kinetic energy density read in
  atomic valenz-charges read in
  non local Contribution for L=           2  read in
    real space projection operators read in
  non local Contribution for L=           2  read in
    real space projection operators read in
  non local Contribution for L=           0  read in
    real space projection operators read in
  non local Contribution for L=           0  read in
    real space projection operators read in
  non local Contribution for L=           1  read in
    real space projection operators read in
  non local Contribution for L=           1  read in
    real space projection operators read in
    PAW grid and wavefunctions read in
 
   number of l-projection  operators is LMAX  =           6
   number of lm-projection operators is LMMAX =          18
 
 POTCAR:    PAW_PBE C 08Apr2002                   
   VRHFIN =C: s2p2                                                              
   LEXCH  = PE                                                                  
   EATOM  =   147.1560 eV,   10.8157 Ry                                         
                                                                                
   TITEL  = PAW_PBE C 08Apr2002                                                 
   LULTRA =        F    use ultrasoft PP ?                                      
   IUNSCR =        1    unscreen: 0-lin 1-nonlin 2-no                           
   RPACOR =    1.200    partial core radius                                     
   POMASS =   12.011; ZVAL   =    4.000    mass and valenz                      
   RCORE  =    1.500    outmost cutoff radius                                   
   RWIGS  =    1.630; RWIGS  =    0.863    wigner-seitz radius (au A)           
   ENMAX  =  400.000; ENMIN  =  300.000 eV                                      
   ICORE  =        2    local potential                                         
   LCOR   =        T    correct aug charges                                     
   LPAW   =        T    paw PP                                                  
   EAUG   =  644.873                                                            
   DEXC   =    0.000                                                            
   RMAX   =    1.529    core radius for proj-oper                               
   RAUG   =    1.300    factor for augmentation sphere                          
   RDEP   =    1.501    radius for radial grids                                 
   RDEPT  =    1.300    core radius for aug-charge                              
                                                                                
   Atomic configuration                                                         
    4 entries                                                                   
     n  l   j            E        occ.                                          
     1  0  0.50      -273.3789   2.0000                                         
     2  0  0.50       -13.7508   2.0000                                         
     2  1  0.50        -5.2854   2.0000                                         
     3  2  1.50        -5.4423   0.0000                                         
   Description                                                                  
     l       E           TYP  RCUT    TYP  RCUT                                 
     0    -13.7508458     23  1.200                                             
     0     -8.2022199     23  1.200                                             
     1     -5.2854383     23  1.500                                             
     1     34.0145650     23  1.500                                             
     2     -5.4423304      7  1.500                                             
  local pseudopotential read in
  partial core-charges read in
  partial kinetic energy density read in
  atomic valenz-charges read in
  non local Contribution for L=           0  read in
    real space projection operators read in
  non local Contribution for L=           0  read in
    real space projection operators read in
  non local Contribution for L=           1  read in
    real space projection operators read in
  non local Contribution for L=           1  read in
    real space projection operators read in
    PAW grid and wavefunctions read in
 
   number of l-projection  operators is LMAX  =           4
   number of lm-projection operators is LMMAX =           8
 
 POTCAR:    PAW_PBE H 15Jun2001                   
   VRHFIN =H: ultrasoft test                                                    
   LEXCH  = PE                                                                  
   EATOM  =    12.4884 eV,    0.9179 Ry                                         
                                                                                
   TITEL  = PAW_PBE H 15Jun2001                                                 
   LULTRA =        F    use ultrasoft PP ?                                      
   IUNSCR =        0    unscreen: 0-lin 1-nonlin 2-no                           
   RPACOR =    0.000    partial core radius                                     
   POMASS =    1.000; ZVAL   =    1.000    mass and valenz                      
   RCORE  =    1.100    outmost cutoff radius                                   
   RWIGS  =    0.700; RWIGS  =    0.370    wigner-seitz radius (au A)           
   ENMAX  =  250.000; ENMIN  =  200.000 eV                                      
   RCLOC  =    0.701    cutoff for local pot                                    
   LCOR   =        T    correct aug charges                                     
   LPAW   =        T    paw PP                                                  
   EAUG   =  400.000                                                            
   RMAX   =    1.123    core radius for proj-oper                               
   RAUG   =    1.200    factor for augmentation sphere                          
   RDEP   =    1.112    radius for radial grids                                 
   RDEPT  =    0.926    core radius for aug-charge                              
                                                                                
   Atomic configuration                                                         
    2 entries                                                                   
     n  l   j            E        occ.                                          
     1  0  0.50        -6.4927   1.0000                                         
     2  1  0.50        -3.4015   0.0000                                         
   Description                                                                  
     l       E           TYP  RCUT    TYP  RCUT                                 
     0     -6.4927494     23  1.100                                             
     0      6.8029130     23  1.100                                             
     1     -4.0817478     23  1.100                                             
  local pseudopotential read in
  atomic valenz-charges read in
  non local Contribution for L=           0  read in
    real space projection operators read in
  non local Contribution for L=           0  read in
    real space projection operators read in
  non local Contribution for L=           1  read in
    real space projection operators read in
    PAW grid and wavefunctions read in
 
   number of l-projection  operators is LMAX  =           3
   number of lm-projection operators is LMMAX =           5
 

 ----------------------------------------------------------------------------- 
|                                                                             |
|  ADVICE TO THIS USER RUNNING 'VASP/VAMP'   (HEAR YOUR MASTER'S VOICE ...):  |
|                                                                             |
|      You have a (more or less) 'large supercell' and for larger cells       |
|      it might be more efficient to use real space projection opertators     |
|      So try LREAL= Auto  in the INCAR   file.                               |
|      Mind: At the moment your POTCAR file does not contain real space       |
|       projectors, and has to be modified,  BUT if you                       |
|      want to do an extremely  accurate calculation you might also keep the  |
|      reciprocal projection scheme          (i.e. LREAL=.FALSE.)             |
|                                                                             |
 ----------------------------------------------------------------------------- 

  PAW_PBE Cu 22Jun2005                  :
 energy of atom  1       EATOM=-1390.9808
 kinetic energy error for atom=    0.0097 (will be added to EATOM!!)
  PAW_PBE C 08Apr2002                   :
 energy of atom  2       EATOM= -147.1560
 kinetic energy error for atom=    0.0116 (will be added to EATOM!!)
  PAW_PBE H 15Jun2001                   :
 energy of atom  3       EATOM=  -12.4884
 kinetic energy error for atom=    0.0045 (will be added to EATOM!!)
 
 
 POSCAR: fcc Cu (100)                            
  positions in direct lattice
  velocities in cartesian coordinates
 exchange correlation table for  LEXCH =        8
   RHO(1)=    0.500       N(1)  =     2000
   RHO(2)=  100.500       N(2)  =     4000
 


--------------------------------------------------------------------------------------------------------


 ion  position               nearest neighbor table
   1  0.000  0.000  0.000-  26 2.57  30 2.57  46 2.57  50 2.57   2 2.57   5 2.57   6 2.57  21 2.57

   2  0.200  0.000  0.000-   3 2.57  27 2.57  47 2.57  46 2.57  26 2.57   7 2.57  22 2.57   1 2.57

   3  0.400  0.000  0.000-   2 2.57  27 2.57  28 2.57  47 2.57  48 2.57   8 2.57  23 2.57   4 2.57

   4  0.600  0.000  0.000-   5 2.57  28 2.57  29 2.57  48 2.57  49 2.57   9 2.57  24 2.57   3 2.57

   5  0.800  0.000  0.000-   4 2.57  29 2.57  49 2.57  30 2.57  50 2.57  10 2.57  25 2.57   1 2.57

   6  0.000  0.200  0.000-  11 2.57  31 2.57  35 2.57  26 2.57  30 2.57  10 2.57   1 2.57   7 2.57

   7  0.200  0.200  0.000-  32 2.57  12 2.57   8 2.57  31 2.57  27 2.57  26 2.57   2 2.57   6 2.57

   8  0.400  0.200  0.000-   7 2.57  13 2.57  32 2.57  33 2.57  27 2.57  28 2.57   9 2.57   3 2.57

   9  0.600  0.200  0.000-  10 2.57  14 2.57  33 2.57  34 2.57  28 2.57  29 2.57   4 2.57   8 2.57

  10  0.800  0.200  0.000-  34 2.57  15 2.57   9 2.57  29 2.57  35 2.57  30 2.57   5 2.57   6 2.57

  11  0.000  0.400  0.000-   6 2.57  31 2.57  35 2.57  36 2.57  40 2.57  15 2.57  16 2.57  12 2.57

  12  0.200  0.400  0.000-   7 2.57  13 2.57  32 2.57  37 2.57  36 2.57  31 2.57  11 2.57  17 2.57

  13  0.400  0.400  0.000-   8 2.57  12 2.57  32 2.57  33 2.57  37 2.57  38 2.57  14 2.57  18 2.57

  14  0.600  0.400  0.000-   9 2.57  15 2.57  33 2.57  34 2.57  38 2.57  39 2.57  13 2.57  19 2.57

  15  0.800  0.400  0.000-  10 2.57  14 2.57  34 2.57  39 2.57  35 2.57  40 2.57  11 2.57  20 2.57

  16  0.000  0.600  0.000-  21 2.57  36 2.57  40 2.57  41 2.57  45 2.57  20 2.57  11 2.57  17 2.57

  17  0.200  0.600  0.000-  18 2.57  22 2.57  37 2.57  42 2.57  41 2.57  36 2.57  12 2.57  16 2.57

  18  0.400  0.600  0.000-  17 2.57  23 2.57  37 2.57  38 2.57  42 2.57  43 2.57  19 2.57  13 2.57

  19  0.600  0.600  0.000-  20 2.57  24 2.57  38 2.57  39 2.57  43 2.57  44 2.57  14 2.57  18 2.57

  20  0.800  0.600  0.000-  19 2.57  25 2.57  39 2.57  44 2.57  40 2.57  45 2.57  15 2.57  16 2.57

  21  0.000  0.800  0.000-  16 2.57  41 2.57  45 2.57  46 2.57  50 2.57  22 2.57  25 2.57   1 2.57

  22  0.200  0.800  0.000-  42 2.57  23 2.57  17 2.57  41 2.57  47 2.57  46 2.57  21 2.57   2 2.57

  23  0.400  0.800  0.000-  18 2.57  22 2.57  42 2.57  43 2.57  47 2.57  48 2.57   3 2.57  24 2.57

  24  0.600  0.800  0.000-  19 2.57  25 2.57  43 2.57  44 2.57  48 2.57  49 2.57  23 2.57   4 2.57

  25  0.800  0.800  0.000-  44 2.57  24 2.57  20 2.57  45 2.57  49 2.57  50 2.57  21 2.57   5 2.57

  26  0.100  0.100  0.062-  52 2.56  31 2.57  27 2.57   7 2.57   1 2.57   2 2.57   6 2.57  46 2.57
                            30 2.57  51 2.58  56 2.58  57 2.59
  27  0.300  0.100  0.062-  52 2.57  32 2.57  26 2.57   7 2.57   2 2.57   8 2.57   3 2.57  47 2.57
                            28 2.57  58 2.57  53 2.58  57 2.59
  28  0.500  0.100  0.062-  59 2.57  33 2.57   8 2.57   9 2.57   3 2.57   4 2.57  27 2.57  48 2.57
                            29 2.57  53 2.57  58 2.58  54 2.59
  29  0.700  0.100  0.062-  59 2.56  34 2.57  30 2.57  10 2.57   5 2.57   4 2.57   9 2.57  49 2.57
                            28 2.57  60 2.58  55 2.58  54 2.59
  30  0.900  0.100  0.062-  29 2.57  35 2.57   6 2.57  10 2.57   1 2.57   5 2.57  26 2.57  50 2.57
                            51 2.58  60 2.58  56 2.58  55 2.58
  31  0.100  0.300  0.062-  57 2.56  61 2.56  26 2.57  32 2.57   6 2.57   7 2.57  11 2.57  12 2.57
                            35 2.57  36 2.57  56 2.58  62 2.67
  32  0.300  0.300  0.062-   7 2.57  27 2.57  31 2.57   8 2.57  12 2.57  13 2.57  33 2.57  37 2.57
                            57 2.57  58 2.57  63 2.61  62 2.62
  33  0.500  0.300  0.062-  28 2.57   9 2.57   8 2.57  14 2.57  13 2.57  32 2.57  34 2.57  38 2.57
                            58 2.57  64 2.57  59 2.59  63 2.60
  34  0.700  0.300  0.062-  64 2.56  10 2.57  35 2.57  29 2.57  15 2.57   9 2.57  14 2.57  39 2.57
                            33 2.57  60 2.58  59 2.58  65 2.58
  35  0.900  0.300  0.062-  65 2.56  34 2.57  30 2.57  10 2.57   6 2.57  15 2.57  11 2.57  40 2.57
                            31 2.57  60 2.58  56 2.58  61 2.59
  36  0.100  0.500  0.062-  37 2.57  12 2.57  16 2.57  17 2.57  11 2.57  31 2.57  40 2.57  41 2.57
                            61 2.57  66 2.57  67 2.61  62 2.62
  37  0.300  0.500  0.062-  68 2.55  62 2.56  36 2.57  17 2.57  12 2.57  18 2.57  13 2.57  42 2.57
                            32 2.57  38 2.57  67 2.58  63 2.58
  38  0.500  0.500  0.062-  68 2.55  14 2.57  18 2.57  19 2.57  13 2.57  37 2.57  39 2.57  43 2.57
                            33 2.57  63 2.58  69 2.58  64 2.58
  39  0.700  0.500  0.062-  40 2.57  20 2.57  15 2.57  14 2.57  19 2.57  38 2.57  34 2.57  44 2.57
                            70 2.57  64 2.57  65 2.59  69 2.60
  40  0.900  0.500  0.062-  65 2.57  39 2.57  16 2.57  20 2.57  11 2.57  15 2.57  35 2.57  45 2.57
                            36 2.57  66 2.57  70 2.58  61 2.59
  41  0.100  0.700  0.062-  42 2.57  46 2.57  21 2.57  22 2.57  16 2.57  17 2.57  45 2.57  36 2.57
                            66 2.57  72 2.57  71 2.59  67 2.60
  42  0.300  0.700  0.062-  68 2.55  22 2.57  47 2.57  41 2.57  23 2.57  17 2.57  18 2.57  37 2.57
                            43 2.57  67 2.58  73 2.58  72 2.58
  43  0.500  0.700  0.062-  68 2.55  74 2.56  48 2.57  24 2.57  23 2.57  19 2.57  18 2.57  38 2.57
                            42 2.57  44 2.57  73 2.58  69 2.58
  44  0.700  0.700  0.062-  25 2.57  45 2.57  49 2.57  24 2.57  20 2.57  19 2.57  39 2.57  43 2.57
                            75 2.57  70 2.57  69 2.61  74 2.62
  45  0.900  0.700  0.062-  71 2.57  50 2.57  44 2.57  25 2.57  21 2.57  20 2.57  16 2.57  41 2.57
                            40 2.57  70 2.57  66 2.58  75 2.59
  46  0.100  0.900  0.062-  72 2.56  47 2.57  41 2.57  22 2.57   1 2.57   2 2.57  21 2.57  50 2.57
                            26 2.57  51 2.58  71 2.58  52 2.58
  47  0.300  0.900  0.062-  42 2.57  46 2.57   2 2.57  22 2.57   3 2.57  23 2.57  27 2.57  48 2.57
                            53 2.57  72 2.57  52 2.59  73 2.60
  48  0.500  0.900  0.062-  43 2.57   4 2.57  23 2.57  24 2.57   3 2.57  28 2.57  47 2.57  49 2.57
                            54 2.57  53 2.57  73 2.61  74 2.62
  49  0.700  0.900  0.062-  75 2.56  54 2.56  44 2.57  50 2.57   5 2.57  25 2.57  24 2.57   4 2.57
                            48 2.57  29 2.57  55 2.58  74 2.67
  50  0.900  0.900  0.062-  71 2.56  49 2.57  45 2.57  25 2.57   1 2.57   5 2.57  21 2.57  30 2.57
                            46 2.57  51 2.58  55 2.58  75 2.59
  51  1.000  0.000  0.126-  96 2.53  80 2.54  76 2.54 100 2.54  52 2.56  71 2.56  56 2.57  55 2.57
                            30 2.58  26 2.58  50 2.58  46 2.58
  52  0.200  0.002  0.125-  97 2.50  76 2.53  96 2.54  77 2.55  26 2.56  51 2.56  27 2.57  57 2.57
                            53 2.57  72 2.58  46 2.58  47 2.59
  53  0.400  1.000  0.125-  97 2.50  78 2.51  98 2.56  77 2.56  54 2.57  48 2.57  28 2.57  47 2.57
                            58 2.57  52 2.57  27 2.58  73 2.59
  54  0.600  0.998  0.126-  78 2.52  99 2.53  79 2.54  98 2.55  55 2.56  49 2.56  53 2.57  48 2.57
                            59 2.57  29 2.59  28 2.59  74 2.59
  55  0.800  1.000  0.126-  79 2.53 100 2.53  80 2.54  99 2.54  54 2.56  75 2.56  60 2.57  51 2.57
                            49 2.58  29 2.58  50 2.58  30 2.58
  56  0.000  0.200  0.126-  85 2.53  76 2.53  80 2.54  81 2.54  61 2.56  57 2.56  60 2.57  51 2.57
                            31 2.58  35 2.58  26 2.58  30 2.58
  57  0.200  0.202  0.126-  77 2.52  81 2.53  76 2.54  82 2.55  56 2.56  31 2.56  58 2.57  32 2.57
                            52 2.57  26 2.59  27 2.59  62 2.59
  58  0.400  0.200  0.125-  83 2.50  77 2.51  82 2.56  78 2.56  57 2.57  32 2.57  27 2.57  33 2.57
                            53 2.57  59 2.57  28 2.58  63 2.59
  59  0.600  0.198  0.125-  83 2.50  79 2.53  84 2.54  78 2.55  29 2.56  60 2.56  28 2.57  54 2.57
                            58 2.57  64 2.58  34 2.58  33 2.59
  60  0.800  0.200  0.126-  84 2.53  80 2.54  79 2.54  85 2.54  59 2.56  65 2.56  55 2.57  56 2.57
                            30 2.58  29 2.58  35 2.58  34 2.58
  61  0.002  0.400  0.126-  90 2.52  81 2.53  85 2.54  86 2.55  56 2.56  31 2.56  66 2.57  36 2.57
                            65 2.57  35 2.59  40 2.59  62 2.59
  62  0.204  0.404  0.127-  82 2.49  86 2.49  63 2.52  67 2.52  81 2.55  37 2.56  57 2.59  61 2.59
                            32 2.62  36 2.62  31 2.67  87 2.68
  63  0.401  0.402  0.126-  82 2.52  62 2.52  68 2.54  88 2.55  83 2.56  64 2.57  38 2.58  37 2.58
                            58 2.59  33 2.60  32 2.61  87 2.66
  64  0.601  0.399  0.125-  88 2.48  84 2.52  34 2.56  89 2.56  83 2.56  69 2.57  63 2.57  39 2.57
                            33 2.57  65 2.58  59 2.58  38 2.58
  65  0.802  0.400  0.125-  89 2.50  85 2.53  84 2.54  90 2.55  35 2.56  60 2.56  40 2.57  61 2.57
                            70 2.57  64 2.58  34 2.58  39 2.59
  66  0.000  0.600  0.125-  91 2.50  90 2.51  86 2.56  95 2.56  61 2.57  36 2.57  40 2.57  41 2.57
                            70 2.57  71 2.57  45 2.58  67 2.59
  67  0.202  0.601  0.126-  86 2.52  62 2.52  68 2.54  92 2.55  91 2.56  72 2.57  42 2.58  37 2.58
                            66 2.59  41 2.60  36 2.61  87 2.66
  68  0.400  0.600  0.124-  67 2.54  73 2.54  69 2.54  63 2.54  37 2.55  38 2.55  42 2.55  43 2.55
                            87 2.62  93 2.62  92 2.71  88 2.71
  69  0.598  0.599  0.126-  94 2.52  74 2.52  68 2.54  88 2.55  89 2.56  64 2.57  38 2.58  43 2.58
                            70 2.59  39 2.60  44 2.61  93 2.66
  70  0.800  0.600  0.125-  89 2.50  95 2.51  94 2.56  90 2.56  75 2.57  44 2.57  45 2.57  39 2.57
                            66 2.57  65 2.57  40 2.58  69 2.59
  71  0.998  0.800  0.125-  91 2.50 100 2.53  96 2.54  95 2.55  50 2.56  51 2.56  45 2.57  75 2.57
                            66 2.57  72 2.58  46 2.58  41 2.59
  72  0.199  0.801  0.125-  92 2.48  96 2.52  46 2.56  97 2.56  91 2.56  73 2.57  67 2.57  47 2.57
                            41 2.57  52 2.58  71 2.58  42 2.58
  73  0.399  0.798  0.126-  98 2.52  74 2.52  68 2.54  92 2.55  97 2.56  72 2.57  42 2.58  43 2.58
                            53 2.59  47 2.60  48 2.61  93 2.66
  74  0.596  0.796  0.127-  94 2.49  98 2.49  69 2.52  73 2.52  99 2.55  43 2.56  75 2.59  54 2.59
                            44 2.62  48 2.62  49 2.67  93 2.68
  75  0.798  0.800  0.126-  95 2.52  99 2.53 100 2.54  94 2.55  55 2.56  49 2.56  70 2.57  44 2.57
                            71 2.57  50 2.59  45 2.59  74 2.59
  76  0.100  0.100  0.187-  56 2.53  52 2.53  51 2.54  57 2.54  77 2.57  80 2.57  81 2.57  96 2.57

  77  0.300  0.104  0.186-  58 2.51  57 2.52  97 2.54  52 2.55  82 2.56  53 2.56  78 2.56  76 2.57

  78  0.500  0.096  0.186-  53 2.51  54 2.52  83 2.54  59 2.55  98 2.56  58 2.56  77 2.56  79 2.57

  79  0.700  0.100  0.187-  55 2.53  59 2.53  60 2.54  54 2.54  78 2.57  80 2.57  99 2.57  84 2.57

  80  0.900  0.100  0.187-  51 2.54  60 2.54  56 2.54  55 2.54  79 2.57  85 2.57  76 2.57 100 2.57

  81  0.101  0.301  0.187-  57 2.53  61 2.53  56 2.54  62 2.55  82 2.57  86 2.57  76 2.57  85 2.57

  82  0.301  0.303  0.187-  62 2.49  63 2.52  57 2.55  58 2.56  77 2.56  83 2.57  81 2.57  87 2.63

  83  0.500  0.295  0.186-  58 2.50  59 2.50  88 2.53  78 2.54  63 2.56  84 2.56  64 2.56  82 2.57

  84  0.700  0.300  0.186-  64 2.52  60 2.53  59 2.54  65 2.54  83 2.56  89 2.56  85 2.57  79 2.57

  85  0.900  0.300  0.187-  56 2.53  65 2.53  60 2.54  61 2.54  90 2.57  80 2.57  81 2.57  84 2.57

  86  0.103  0.501  0.187-  62 2.49  67 2.52  61 2.55  66 2.56  90 2.56  91 2.57  81 2.57  87 2.63

  87  0.307  0.507  0.193- 101 2.25 102 2.25  88 2.60  92 2.60  68 2.62  86 2.63  82 2.63  67 2.66
                            63 2.66  62 2.68
  88  0.509  0.491  0.188- 101 1.95  64 2.48  89 2.53  83 2.53  69 2.55  63 2.55  93 2.60  87 2.60
                            68 2.71
  89  0.705  0.500  0.186-  70 2.50  65 2.50  88 2.53  90 2.54  69 2.56  84 2.56  64 2.56  94 2.57

  90  0.904  0.500  0.186-  66 2.51  61 2.52  89 2.54  65 2.55  86 2.56  70 2.56  95 2.56  85 2.57

  91  0.095  0.700  0.186-  66 2.50  71 2.50  92 2.53  95 2.54  67 2.56  96 2.56  72 2.56  86 2.57

  92  0.291  0.709  0.188- 102 1.95  72 2.48  97 2.53  91 2.53  73 2.55  67 2.55  87 2.60  93 2.60
                            68 2.71
  93  0.493  0.693  0.193- 101 2.25 102 2.25  88 2.60  92 2.60  68 2.62  98 2.63  94 2.63  73 2.66
                            69 2.66  74 2.68
  94  0.697  0.699  0.187-  74 2.49  69 2.52  75 2.55  70 2.56  95 2.56  89 2.57  99 2.57  93 2.63

  95  0.896  0.700  0.186-  70 2.51  75 2.52  91 2.54  71 2.55  94 2.56  66 2.56  90 2.56 100 2.57

  96  0.100  0.900  0.186-  72 2.52  51 2.53  71 2.54  52 2.54  91 2.56  97 2.56  76 2.57 100 2.57

  97  0.300  0.905  0.186-  53 2.50  52 2.50  92 2.53  77 2.54  73 2.56  96 2.56  72 2.56  98 2.57

  98  0.499  0.897  0.187-  74 2.49  73 2.52  54 2.55  53 2.56  78 2.56  97 2.57  99 2.57  93 2.63

  99  0.699  0.899  0.187-  75 2.53  54 2.53  55 2.54  74 2.55  94 2.57  98 2.57 100 2.57  79 2.57

 100  0.900  0.900  0.187-  55 2.53  71 2.53  51 2.54  75 2.54  95 2.57  80 2.57  99 2.57  96 2.57

 101  0.438  0.562  0.239- 103 1.10 102 1.37  88 1.95  87 2.25  93 2.25
 102  0.362  0.638  0.239- 104 1.10 101 1.37  92 1.95  87 2.25  93 2.25
 103  0.468  0.532  0.272- 101 1.10
 104  0.332  0.668  0.272- 102 1.10
 
  LATTYP: Found a simple tetragonal cell.
 ALAT       =    12.8339880785
 C/A-ratio  =     2.2627416998
  
  Lattice vectors:
  
 A1 = (   9.0750000000,  -9.0750000000,   0.0000000000)
 A2 = (   9.0750000000,   9.0750000000,   0.0000000000)
 A3 = (   0.0000000000,   0.0000000000,  29.0400000000)


Analysis of symmetry for initial positions (statically):
=====================================================================
 Subroutine PRICEL returns:
 Original cell was already a primitive cell.
 

 Routine SETGRP: Setting up the symmetry group for a 
 simple tetragonal supercell.


 Subroutine GETGRP returns: Found  4 space group operations
 (whereof  2 operations were pure point group operations)
 out of a pool of 16 trial point group operations.


The static configuration has the point symmetry C_1h.
 The point group associated with its full space group is C_2v.


Analysis of symmetry for dynamics (positions and initial velocities):
=====================================================================
 Subroutine PRICEL returns:
 Original cell was already a primitive cell.
 

 Routine SETGRP: Setting up the symmetry group for a 
 simple tetragonal supercell.


 Subroutine GETGRP returns: Found  4 space group operations
 (whereof  2 operations were pure point group operations)
 out of a pool of 16 trial point group operations.


The dynamic configuration has the point symmetry C_1h.
 The point group associated with its full space group is C_2v.


Analysis of constrained symmetry for selective dynamics:
=====================================================================
 Subroutine PRICEL returns:
 Original cell was already a primitive cell.
 

 Routine SETGRP: Setting up the symmetry group for a 
 simple tetragonal supercell.


 Subroutine GETGRP returns: Found  4 space group operations
 (whereof  2 operations were pure point group operations)
 out of a pool of 16 trial point group operations.


The constrained configuration has the point symmetry C_1h.
 The point group associated with its full space group is C_2v.
 
 
 KPOINTS: Atomatic generation                     

Automatic generation of k-mesh.
Space group operators:
 irot       det(A)        alpha          n_x          n_y          n_z        tau_x        tau_y        tau_z
    1     1.000000     0.000000     1.000000     0.000000     0.000000     0.000000     0.000000     0.000000
    2    -1.000000   180.000000     1.000000     0.000000     0.000000     0.000000     0.000000     0.000000
    3     1.000000   180.000000     0.000000     0.000000     1.000000     0.800000     0.200000     0.000000
    4    -1.000000   180.000000     0.000000     1.000000     0.000000     0.800000     0.200000     0.000000
 
 Subroutine IBZKPT returns following result:
 ===========================================
 
 Found      4 irreducible k-points:
 
 Following reciprocal coordinates:
            Coordinates               Weight
  0.000000  0.000000  0.000000      1.000000
  0.333333  0.000000  0.000000      4.000000
  0.333333  0.333333  0.000000      2.000000
 -0.333333  0.333333  0.000000      2.000000
 
 Following cartesian coordinates:
            Coordinates               Weight
  0.000000  0.000000  0.000000      1.000000
  0.066667 -0.066667  0.000000      4.000000
  0.133333  0.000000  0.000000      2.000000
  0.000000  0.133333  0.000000      2.000000
 


--------------------------------------------------------------------------------------------------------




 Dimension of arrays:
   k-points           NKPTS =      4   k-points in BZ     NKDIM =      4   number of bands    NBANDS=    666
   number of dos      NEDOS =    301   number of ions     NIONS =    104
   non local maximal  LDIM  =      6   non local SUM 2l+1 LMDIM =     18
   total plane-waves  NPLWV = ******
   max r-space proj   IRMAX =      1   max aug-charges    IRDMAX=  10499
   dimension x,y,z NGX =    90 NGY =   90 NGZ =  210
   dimension x,y,z NGXF=   180 NGYF=  180 NGZF=  420
   support grid    NGXF=   180 NGYF=  180 NGZF=  420
   ions per type =             100   2   2
 NGX,Y,Z   is equivalent  to a cutoff of  11.66, 11.66, 12.02 a.u.
 NGXF,Y,Z  is equivalent  to a cutoff of  23.32, 23.32, 24.04 a.u.


 I would recommend the setting:
   dimension x,y,z NGX =    89 NGY =   89 NGZ =  201
 SYSTEM =  Cu                                      
 POSCAR =  fcc Cu (100)                            

 Startparameter for this run:
   NWRITE =      2    write-flag & timer
   PREC   = accura    normal or accurate (medium, high low for compatibility)
   ISTART =      0    job   : 0-new  1-cont  2-samecut
   ICHARG =      2    charge: 1-file 2-atom 10-const
   ISPIN  =      1    spin polarized calculation?
   LNONCOLLINEAR =      F non collinear calculations
   LSORBIT =      F    spin-orbit coupling
   INIWAV =      1    electr: 0-lowe 1-rand  2-diag
   LASPH  =      F    aspherical Exc in radial PAW
   METAGGA=      F    non-selfconsistent MetaGGA calc.

 Electronic Relaxation 1
   ENCUT  =  450.0 eV  33.07 Ry    5.75 a.u.  22.20 22.20 50.23*2*pi/ulx,y,z
   ENINI  =  450.0     initial cutoff
   ENAUG  =  644.9 eV  augmentation charge cutoff
   NELM   =     60;   NELMIN=  2; NELMDL= -5     # of ELM steps 
   EDIFF  = 0.1E-03   stopping-criterion for ELM
   LREAL  =      F    real-space projection
   NLSPLINE    = F    spline interpolate recip. space projectors
   LCOMPAT=      F    compatible to vasp.4.4
   GGA_COMPAT  = T    GGA compatible to vasp.4.4-vasp.4.6
   LMAXPAW     = -100 max onsite density
   LMAXMIX     =    2 max onsite mixed and CHGCAR
   VOSKOWN=      0    Vosko Wilk Nusair interpolation
   ROPT   =    0.00000   0.00000   0.00000
 Ionic relaxation
   EDIFFG = 0.1E-02   stopping-criterion for IOM
   NSW    =      0    number of steps for IOM
   NBLOCK =      1;   KBLOCK =      1    inner block; outer block 
   IBRION =     -1    ionic relax: 0-MD 1-quasi-New 2-CG
   NFREE  =      0    steps in history (QN), initial steepest desc. (CG)
   ISIF   =      2    stress and relaxation
   IWAVPR =     10    prediction:  0-non 1-charg 2-wave 3-comb
   ISYM   =      2    0-nonsym 1-usesym 2-fastsym
   LCORR  =      T    Harris-Foulkes like correction to forces

   POTIM  = 0.5000    time-step for ionic-motion
   TEIN   =    0.0    initial temperature
   TEBEG  =    0.0;   TEEND  =   0.0 temperature during run
   SMASS  =  -3.00    Nose mass-parameter (am)
   estimated Nose-frequenzy (Omega)   =  0.10E-29 period in steps =****** mass=  -0.376E-26a.u.
   SCALEE = 1.0000    scale energy and forces
   NPACO  =    256;   APACO  = 16.0  distance and # of slots for P.C.
   PSTRESS=    0.0 pullay stress

  Mass of Ions in am
   POMASS =  63.55 12.01  1.00
  Ionic Valenz
   ZVAL   =  11.00  4.00  1.00
  Atomic Wigner-Seitz radii
   RWIGS  =  -1.00 -1.00 -1.00
  virtual crystal weights 
   VCA    =   1.00  1.00  1.00
   NELECT =    1110.0000    total number of electrons
   NUPDOWN=      -1.0000    fix difference up-down

 DOS related values:
   EMIN   =  10.00;   EMAX   =-10.00  energy-range for DOS
   EFERMI =   0.00
   ISMEAR =     0;   SIGMA  =   0.10  broadening in eV -4-tet -1-fermi 0-gaus

 Electronic relaxation 2 (details)
   IALGO  =     38    algorithm
   LDIAG  =      T    sub-space diagonalisation (order eigenvalues)
   LSUBROT=      F    optimize rotation matrix (better conditioning)
   TURBO    =      0    0=normal 1=particle mesh
   IRESTART =      0    0=no restart 2=restart with 2 vectors
   NREBOOT  =      0    no. of reboots
   NMIN     =      0    reboot dimension
   EREF     =   0.00    reference energy to select bands
   IMIX   =      4    mixing-type and parameters
     AMIX     =   0.40;   BMIX     =  1.00
     AMIX_MAG =   1.60;   BMIX_MAG =  1.00
     AMIN     =   0.10
     WC   =   100.;   INIMIX=   1;  MIXPRE=   1;  MAXMIX= -45

 Intra band minimization:
   WEIMIN = 0.0000     energy-eigenvalue tresh-hold
   EBREAK =  0.38E-07  absolut break condition
   DEPER  =   0.30     relativ break condition  

   TIME   =   0.40     timestep for ELM

  volume/ion in A,a.u.               =      45.99       310.37
  Fermi-wavevector in a.u.,A,eV,Ry     =   1.006026  1.901113 13.770297  1.012088
  Thomas-Fermi vector in A             =   2.138742
 
 Write flags
   LWAVE  =      T    write WAVECAR
   LCHARG =      T    write CHGCAR
   LVTOT  =      F    write LOCPOT, total local potential
   LVHAR  =      F    write LOCPOT, Hartree potential only
   LELF   =      F    write electronic localiz. function (ELF)
   LORBIT =      0    0 simple, 1 ext, 2 COOP (PROOUT)


 Dipole corrections
   LMONO  =      F    monopole corrections only (constant potential shift)
   LDIPOL =      F    correct potential (dipole corrections)
   IDIPOL =      0    1-x, 2-y, 3-z, 4-all directions 
   EPSILON=  1.0000000 bulk dielectric constant

 Exchange correlation treatment:
   GGA     =    --    GGA type
   LEXCH   =     8    internal setting for exchange type
   VOSKOWN=      0    Vosko Wilk Nusair interpolation
   LHFCALC =     F    Hartree Fock is set to
   LHFONE  =     F    Hartree Fock one center treatment
   AEXX    =    0.0000 exact exchange contribution

 Linear response parameters
   LEPSILON=     F    determine dielectric tensor
   LRPA    =     F    only Hartree local field effects (RPA)
   LNABLA  =     F    use nabla operator in PAW spheres
   LVEL    =     F    velocity operator in full k-point grid
   LINTERFAST=   F  fast interpolation
   KINTER  =     0    interpolate to denser k-point grid
   CSHIFT  =0.1000    complex shift for real part using Kramers Kronig
   OMEGAMAX=  -1.0    maximum frequency
   DEG_THRESHOLD= 0.2000000E-02 threshold for treating states as degnerate
   RTIME   =    0.100 relaxation time in fs

 Orbital magnetization related:
   ORBITALMAG=     F  switch on orbital magnetization
   LCHIMAG   =     F  perturbation theory with respect to B field
   DQ        =  0.001000  dq finite difference perturbation B field



--------------------------------------------------------------------------------------------------------


 Static calculation
 charge density and potential will be updated during run
 non-spin polarized calculation
 Variant of blocked Davidson
 Davidson routine will perform the subspace rotation
 perform sub-space diagonalisation
    after iterative eigenvector-optimisation
 modified Broyden-mixing scheme, WC =      100.0
 initial mixing is a Kerker type mixing with AMIX =  0.4000 and BMIX =      1.0000
 Hartree-type preconditioning will be used
 using additional bands          111
 reciprocal scheme for non local part
 use partial core corrections
 calculate Harris-corrections to forces 
   (improved forces if not selfconsistent)
 use gradient corrections 
 use of overlap-Matrix (Vanderbilt PP)
 Gauss-broadening in eV      SIGMA  =   0.10


--------------------------------------------------------------------------------------------------------


  energy-cutoff  :      450.00
  volume of cell :     4783.21
      direct lattice vectors                 reciprocal lattice vectors
     9.075000000 -9.075000000  0.000000000     0.055096419 -0.055096419  0.000000000
     9.075000000  9.075000000  0.000000000     0.055096419  0.055096419  0.000000000
     0.000000000  0.000000000 29.040000000     0.000000000  0.000000000  0.034435262

  length of vectors
    12.833988079 12.833988079 29.040000000     0.077918103  0.077918103  0.034435262


 
 k-points in units of 2pi/SCALE and weight: Atomatic generation                     
   0.00000000  0.00000000  0.00000000       0.111
   0.06666667 -0.06666667  0.00000000       0.444
   0.13333333  0.00000000  0.00000000       0.222
   0.00000000  0.13333333  0.00000000       0.222
 
 k-points in reciprocal lattice and weights: Atomatic generation                     
   0.00000000  0.00000000  0.00000000       0.111
   0.33333333  0.00000000  0.00000000       0.444
   0.33333333  0.33333333  0.00000000       0.222
  -0.33333333  0.33333333  0.00000000       0.222
 
 position of ions in fractional coordinates (direct lattice) 
   0.00000000  0.00000000  0.00000000
   0.20000000  0.00000000  0.00000000
   0.40000000  0.00000000  0.00000000
   0.60000000  0.00000000  0.00000000
   0.80000000  0.00000000  0.00000000
   0.00000000  0.20000000  0.00000000
   0.20000000  0.20000000  0.00000000
   0.40000000  0.20000000  0.00000000
   0.60000000  0.20000000  0.00000000
   0.80000000  0.20000000  0.00000000
   0.00000000  0.40000000  0.00000000
   0.20000000  0.40000000  0.00000000
   0.40000000  0.40000000  0.00000000
   0.60000000  0.40000000  0.00000000
   0.80000000  0.40000000  0.00000000
   0.00000000  0.60000000  0.00000000
   0.20000000  0.60000000  0.00000000
   0.40000000  0.60000000  0.00000000
   0.60000000  0.60000000  0.00000000
   0.80000000  0.60000000  0.00000000
   0.00000000  0.80000000  0.00000000
   0.20000000  0.80000000  0.00000000
   0.40000000  0.80000000  0.00000000
   0.60000000  0.80000000  0.00000000
   0.80000000  0.80000000  0.00000000
   0.10000000  0.10000000  0.06250000
   0.30000000  0.10000000  0.06250000
   0.50000000  0.10000000  0.06250000
   0.70000000  0.10000000  0.06250000
   0.90000000  0.10000000  0.06250000
   0.10000000  0.30000000  0.06250000
   0.30000000  0.30000000  0.06250000
   0.50000000  0.30000000  0.06250000
   0.70000000  0.30000000  0.06250000
   0.90000000  0.30000000  0.06250000
   0.10000000  0.50000000  0.06250000
   0.30000000  0.50000000  0.06250000
   0.50000000  0.50000000  0.06250000
   0.70000000  0.50000000  0.06250000
   0.90000000  0.50000000  0.06250000
   0.10000000  0.70000000  0.06250000
   0.30000000  0.70000000  0.06250000
   0.50000000  0.70000000  0.06250000
   0.70000000  0.70000000  0.06250000
   0.90000000  0.70000000  0.06250000
   0.10000000  0.90000000  0.06250000
   0.30000000  0.90000000  0.06250000
   0.50000000  0.90000000  0.06250000
   0.70000000  0.90000000  0.06250000
   0.90000000  0.90000000  0.06250000
   0.99978811  0.00021189  0.12555818
   0.19963847  0.00154028  0.12533887
   0.40026666  0.99973616  0.12530563
   0.60020304  0.99806112  0.12555125
   0.79984054  0.99984054  0.12575934
   0.00015946  0.20015946  0.12575934
   0.19979696  0.20193888  0.12555125
   0.39973334  0.20026384  0.12530563
   0.60036153  0.19845972  0.12533887
   0.80021189  0.19978811  0.12555818
   0.00193888  0.39979696  0.12555125
   0.20404314  0.40404314  0.12733062
   0.40058509  0.40182373  0.12625146
   0.60086888  0.39913112  0.12530886
   0.80154028  0.39963847  0.12533887
   0.00026384  0.59973334  0.12530563
   0.20182373  0.60058509  0.12625146
   0.40000000  0.60000000  0.12403887
   0.59817627  0.59941491  0.12625146
   0.79973616  0.60026666  0.12530563
   0.99845972  0.80036153  0.12533887
   0.19913112  0.80086888  0.12530886
   0.39941491  0.79817627  0.12625146
   0.59595686  0.79595686  0.12733062
   0.79806112  0.80020304  0.12555125
   0.10011992  0.10042693  0.18653126
   0.30018320  0.10351197  0.18634698
   0.49981680  0.09648803  0.18634698
   0.69988008  0.09957307  0.18653126
   0.90000000  0.10000000  0.18674973
   0.10070306  0.30070306  0.18679695
   0.30075838  0.30307085  0.18679884
   0.50042940  0.29451046  0.18602387
   0.69983561  0.30016439  0.18621897
   0.90042693  0.30011992  0.18653126
   0.10307085  0.50075838  0.18679884
   0.30723151  0.50723151  0.19335192
   0.50866229  0.49133771  0.18823144
   0.70548954  0.49957060  0.18602387
   0.90351197  0.50018320  0.18634698
   0.09451046  0.70042940  0.18602387
   0.29133771  0.70866229  0.18823144
   0.49276849  0.69276849  0.19335192
   0.69692915  0.69924162  0.18679884
   0.89648803  0.69981680  0.18634698
   0.10016439  0.89983561  0.18621897
   0.29957060  0.90548954  0.18602387
   0.49924162  0.89692915  0.18679884
   0.69929694  0.89929694  0.18679695
   0.89957307  0.89988008  0.18653126
   0.43781531  0.56218469  0.23873136
   0.36218469  0.63781531  0.23873136
   0.46781219  0.53218781  0.27169302
   0.33218781  0.66781219  0.27169302
 
 position of ions in cartesian coordinates  (Angst):
   0.00000000  0.00000000  0.00000000
   1.81500000 -1.81500000  0.00000000
   3.63000000 -3.63000000  0.00000000
   5.44500000 -5.44500000  0.00000000
   7.26000000 -7.26000000  0.00000000
   1.81500000  1.81500000  0.00000000
   3.63000000  0.00000000  0.00000000
   5.44500000 -1.81500000  0.00000000
   7.26000000 -3.63000000  0.00000000
   9.07500000 -5.44500000  0.00000000
   3.63000000  3.63000000  0.00000000
   5.44500000  1.81500000  0.00000000
   7.26000000  0.00000000  0.00000000
   9.07500000 -1.81500000  0.00000000
  10.89000000 -3.63000000  0.00000000
   5.44500000  5.44500000  0.00000000
   7.26000000  3.63000000  0.00000000
   9.07500000  1.81500000  0.00000000
  10.89000000  0.00000000  0.00000000
  12.70500000 -1.81500000  0.00000000
   7.26000000  7.26000000  0.00000000
   9.07500000  5.44500000  0.00000000
  10.89000000  3.63000000  0.00000000
  12.70500000  1.81500000  0.00000000
  14.52000000  0.00000000  0.00000000
   1.81500000  0.00000000  1.81500000
   3.63000000 -1.81500000  1.81500000
   5.44500000 -3.63000000  1.81500000
   7.26000000 -5.44500000  1.81500000
   9.07500000 -7.26000000  1.81500000
   3.63000000  1.81500000  1.81500000
   5.44500000  0.00000000  1.81500000
   7.26000000 -1.81500000  1.81500000
   9.07500000 -3.63000000  1.81500000
  10.89000000 -5.44500000  1.81500000
   5.44500000  3.63000000  1.81500000
   7.26000000  1.81500000  1.81500000
   9.07500000  0.00000000  1.81500000
  10.89000000 -1.81500000  1.81500000
  12.70500000 -3.63000000  1.81500000
   7.26000000  5.44500000  1.81500000
   9.07500000  3.63000000  1.81500000
  10.89000000  1.81500000  1.81500000
  12.70500000  0.00000000  1.81500000
  14.52000000 -1.81500000  1.81500000
   9.07500000  7.26000000  1.81500000
  10.89000000  5.44500000  1.81500000
  12.70500000  3.63000000  1.81500000
  14.52000000  1.81500000  1.81500000
  16.33500000  0.00000000  1.81500000
   9.07500000 -9.07115413  3.64620941
   1.82569717 -1.79774111  3.63984069
  12.70502563  5.44018575  3.63887549
  14.50424727  3.61056203  3.64600826
  16.33210587  1.81500000  3.65205127
   1.81789413  1.81500000  3.65205127
   3.64575273  0.01943797  3.64600826
   5.44497437 -1.81018575  3.63887549
   7.24930283 -3.64725889  3.63984069
   9.07500000 -5.44884587  3.64620941
   3.64575273  3.61056203  3.64600826
   5.51838293  1.81500000  3.69768122
   7.28185997  0.01124065  3.66634242
   9.07500000 -1.83077025  3.63896940
  10.90069717 -3.64725889  3.63984069
   5.44497437  5.44018575  3.63887549
   7.28185997  3.61875935  3.66634242
   9.07500000  1.81500000  3.60208889
  10.86814003  0.01124065  3.66634242
  12.70502563 -1.81018575  3.63887549
  16.32430283 -1.79774111  3.63984069
   9.07500000  5.46077025  3.63896940
  10.86814003  3.61875935  3.66634242
  12.63161707  1.81500000  3.69768122
  14.50424727  0.01943797  3.64600826
   1.81996263  0.00278607  5.41686776
   3.66353359 -1.78479142  5.41151630
   5.41146641 -3.66020858  5.41151630
   7.25503737 -5.44778607  5.41686776
   9.07500000 -7.26000000  5.42321214
   3.64276052  1.81500000  5.42458348
   5.47975022  0.02098571  5.42463822
   7.21407929 -1.86871440  5.40213330
   9.07500000 -3.62701633  5.40779893
  10.89496263 -5.44778607  5.41686776
   5.47975022  3.60901429  5.42463822
   7.39125191  1.81500000  5.61493989
   9.07500000 -0.15722058  5.46624108
  10.93592071 -1.86871440  5.40213330
  12.73853359 -3.66020858  5.41151630
   7.21407929  5.49871440  5.40213330
   9.07500000  3.78722058  5.46624108
  10.75874809  1.81500000  5.61493989
  12.67024978  0.02098571  5.42463822
  14.48646641 -1.78479142  5.41151630
   9.07500000  7.25701633  5.40779893
  10.93592071  5.49871440  5.40213330
  12.67024978  3.60901429  5.42463822
  14.50723948  1.81500000  5.42458348
  16.33003737  0.00278607  5.41686776
   9.07500000  1.12865218  6.93275877
   9.07500000  2.50134782  6.93275877
   9.07500000  0.58420875  7.88996542
   9.07500000  3.04579125  7.88996542
 


--------------------------------------------------------------------------------------------------------


 k-point  1 :   0.0000 0.0000 0.0000  plane waves:  103689
 k-point  2 :   0.3333 0.0000 0.0000  plane waves:  103644
 k-point  3 :   0.3333 0.3333 0.0000  plane waves:  103688
 k-point  4 :  -0.3333 0.3333 0.0000  plane waves:  103688

 maximum and minimum number of plane-waves per node :      4347     4279

 maximum number of plane-waves:    103689
 maximum index in each direction: 
   IXMAX=   22   IYMAX=   22   IZMAX=   50
   IXMIN=  -22   IYMIN=  -22   IZMIN=  -50

 NGX is ok and might be reduce to  90
 NGY is ok and might be reduce to  90
 NGZ is ok and might be reduce to 202

 parallel 3D FFT for wavefunctions:
    minimum data exchange during FFTs selected (reduces bandwidth)
 parallel 3D FFT for charge:
    minimum data exchange during FFTs selected (reduces bandwidth)


 total amount of memory used by VASP on root node   296825. kBytes
========================================================================

   base      :      30000. kBytes
   nonl-proj :      14653. kBytes
   fftplans  :      22249. kBytes
   grid      :      41875. kBytes
   one-center:         77. kBytes
   wavefun   :     187971. kBytes
 
     INWAV:  cpu time    0.00: real time    0.00
 Broyden mixing: mesh for mixing (old mesh)
   NGX = 45   NGY = 45   NGZ =101
  (NGX  =180   NGY  =180   NGZ  =420)
  gives a total of 204525 points

 initial charge density was supplied:
 charge density of overlapping atoms calculated
 number of electron    1110.0000000 magnetization 
 keeping initial charge density in first step


--------------------------------------------------------------------------------------------------------


 Maximum index for augmentation-charges          690 (set IRDMAX)


--------------------------------------------------------------------------------------------------------


 First call to EWALD:  gamma=   0.105
 Maximum number of real-space cells 3x 3x 2
 Maximum number of reciprocal cells 2x 2x 4

 FEWALD executed in parallel
    FEWALD:  cpu time    0.01: real time    0.01


----------------------------------------- Iteration    1(   1)  ---------------------------------------


    POTLOK:  cpu time    0.76: real time    0.76
    SETDIJ:  cpu time    0.02: real time    0.03
     EDDAV:  cpu time  192.68: real time  193.84
       DOS:  cpu time    0.01: real time    0.01
    --------------------------------------------
      LOOP:  cpu time  193.47: real time  194.65

 eigenvalue-minimisations  :  5328
 total energy-change (2. order) : 0.9716774E+04  (-0.4162536E+05)
 number of electron    1110.0000000 magnetization 
 augmentation part     1110.0000000 magnetization 

 Free energy of the ion-electron system (eV)
  ---------------------------------------------------
  alpha Z        PSCENC =      1553.50845034
  Ewald energy   TEWEN  =    822425.91726277
  -Hartree energ DENC   =   -953863.98826191
  -exchange      EXHF   =         0.00000000
  -V(xc)+E(xc)   XCENC  =      4576.74361464
  PAW double counting   =    123041.97813546  -133627.31542744
  entropy T*S    EENTRO =        -0.20573757
  eigenvalues    EBANDS =      6193.76791789
  atomic energy  EATOM  =    139416.36850200
  ---------------------------------------------------
  free energy    TOTEN  =      9716.77445618 eV

  energy without entropy =     9716.98019375  energy(sigma->0) =     9716.87732497


--------------------------------------------------------------------------------------------------------




----------------------------------------- Iteration    1(   2)  ---------------------------------------


     EDDAV:  cpu time  193.63: real time  194.30
       DOS:  cpu time    0.01: real time    0.01
    --------------------------------------------
      LOOP:  cpu time  193.68: real time  194.35

 eigenvalue-minimisations  :  5328
 total energy-change (2. order) :-0.9027040E+04  (-0.8704147E+04)
 number of electron    1110.0000000 magnetization 
 augmentation part     1110.0000000 magnetization 

 Free energy of the ion-electron system (eV)
  ---------------------------------------------------
  alpha Z        PSCENC =      1553.50845034
  Ewald energy   TEWEN  =    822425.91726277
  -Hartree energ DENC   =   -953863.98826191
  -exchange      EXHF   =         0.00000000
  -V(xc)+E(xc)   XCENC  =      4576.74361464
  PAW double counting   =    123041.97813546  -133627.31542744
  entropy T*S    EENTRO =        -0.16622005
  eigenvalues    EBANDS =     -2833.31147212
  atomic energy  EATOM  =    139416.36850200
  ---------------------------------------------------
  free energy    TOTEN  =       689.73458369 eV

  energy without entropy =      689.90080374  energy(sigma->0) =      689.81769372


--------------------------------------------------------------------------------------------------------




----------------------------------------- Iteration    1(   3)  ---------------------------------------


     EDDAV:  cpu time  201.32: real time  201.90
       DOS:  cpu time    0.01: real time    0.01
    --------------------------------------------
      LOOP:  cpu time  201.33: real time  201.91

 eigenvalue-minimisations  :  5640
 total energy-change (2. order) :-0.1049489E+04  (-0.9771365E+03)
 number of electron    1110.0000000 magnetization 
 augmentation part     1110.0000000 magnetization 

 Free energy of the ion-electron system (eV)
  ---------------------------------------------------
  alpha Z        PSCENC =      1553.50845034
  Ewald energy   TEWEN  =    822425.91726277
  -Hartree energ DENC   =   -953863.98826191
  -exchange      EXHF   =         0.00000000
  -V(xc)+E(xc)   XCENC  =      4576.74361464
  PAW double counting   =    123041.97813546  -133627.31542744
  entropy T*S    EENTRO =        -0.22258246
  eigenvalues    EBANDS =     -3882.74372131
  atomic energy  EATOM  =    139416.36850200
  ---------------------------------------------------
  free energy    TOTEN  =      -359.75402790 eV

  energy without entropy =     -359.53144544  energy(sigma->0) =     -359.64273667


--------------------------------------------------------------------------------------------------------




----------------------------------------- Iteration    1(   4)  ---------------------------------------


     EDDAV:  cpu time  233.39: real time  234.14
       DOS:  cpu time    0.01: real time    0.01
    --------------------------------------------
      LOOP:  cpu time  233.40: real time  234.15

 eigenvalue-minimisations  :  6824
 total energy-change (2. order) :-0.8570071E+02  (-0.8154611E+02)
 number of electron    1110.0000000 magnetization 
 augmentation part     1110.0000000 magnetization 

 Free energy of the ion-electron system (eV)
  ---------------------------------------------------
  alpha Z        PSCENC =      1553.50845034
  Ewald energy   TEWEN  =    822425.91726277
  -Hartree energ DENC   =   -953863.98826191
  -exchange      EXHF   =         0.00000000
  -V(xc)+E(xc)   XCENC  =      4576.74361464
  PAW double counting   =    123041.97813546  -133627.31542744
  entropy T*S    EENTRO =        -0.23391171
  eigenvalues    EBANDS =     -3968.43309891
  atomic energy  EATOM  =    139416.36850200
  ---------------------------------------------------
  free energy    TOTEN  =      -445.45473475 eV

  energy without entropy =     -445.22082305  energy(sigma->0) =     -445.33777890


--------------------------------------------------------------------------------------------------------




----------------------------------------- Iteration    1(   5)  ---------------------------------------


     EDDAV:  cpu time  270.38: real time  271.02
       DOS:  cpu time    0.01: real time    0.01
    CHARGE:  cpu time    7.54: real time    7.60
    MIXING:  cpu time    0.02: real time    0.02
    --------------------------------------------
      LOOP:  cpu time  277.96: real time  278.65

 eigenvalue-minimisations  :  8192
 total energy-change (2. order) :-0.4824300E+01  (-0.4606908E+01)
 number of electron    1110.0001365 magnetization 
 augmentation part      653.5160257 magnetization 

 Broyden mixing:
  rms(total) = 0.72715E+01    rms(broyden)= 0.72713E+01
  rms(prec ) = 0.75388E+01
  weight for this iteration     100.00

 Free energy of the ion-electron system (eV)
  ---------------------------------------------------
  alpha Z        PSCENC =      1553.50845034
  Ewald energy   TEWEN  =    822425.91726277
  -Hartree energ DENC   =   -953863.98826191
  -exchange      EXHF   =         0.00000000
  -V(xc)+E(xc)   XCENC  =      4576.74361464
  PAW double counting   =    123041.97813546  -133627.31542744
  entropy T*S    EENTRO =        -0.22988454
  eigenvalues    EBANDS =     -3973.26142594
  atomic energy  EATOM  =    139416.36850200
  ---------------------------------------------------
  free energy    TOTEN  =      -450.27903461 eV

  energy without entropy =     -450.04915007  energy(sigma->0) =     -450.16409234


--------------------------------------------------------------------------------------------------------




----------------------------------------- Iteration    1(   6)  ---------------------------------------


    POTLOK:  cpu time    0.76: real time    0.77
    SETDIJ:  cpu time    0.02: real time    0.02
     EDDAV:  cpu time  215.28: real time  215.90
       DOS:  cpu time    0.01: real time    0.01
    CHARGE:  cpu time    7.44: real time    7.45
    MIXING:  cpu time    0.02: real time    0.05
    --------------------------------------------
      LOOP:  cpu time  223.53: real time  224.21

 eigenvalue-minimisations  :  6144
 total energy-change (2. order) : 0.4478279E+02  (-0.9972387E+02)
 number of electron    1110.0001578 magnetization 
 augmentation part      733.0589740 magnetization 

 Broyden mixing:
  rms(total) = 0.40649E+01    rms(broyden)= 0.40646E+01
  rms(prec ) = 0.42266E+01
  weight for this iteration     100.00

 eigenvalues of (default mixing * dielectric matrix)
  average eigenvalue GAMMA=   0.6452
  0.6452

 Free energy of the ion-electron system (eV)
  ---------------------------------------------------
  alpha Z        PSCENC =      1553.50845034
  Ewald energy   TEWEN  =    822425.91726277
  -Hartree energ DENC   =   -951126.43246828
  -exchange      EXHF   =         0.00000000
  -V(xc)+E(xc)   XCENC  =      4446.57660308
  PAW double counting   =    124245.88770145  -134292.82453815
  entropy T*S    EENTRO =        -0.13842964
  eigenvalues    EBANDS =     -7074.35933285
  atomic energy  EATOM  =    139416.36850200
  ---------------------------------------------------
  free energy    TOTEN  =      -405.49624927 eV

  energy without entropy =     -405.35781963  energy(sigma->0) =     -405.42703445


--------------------------------------------------------------------------------------------------------




----------------------------------------- Iteration    1(   7)  ---------------------------------------


    POTLOK:  cpu time    0.76: real time    0.76
    SETDIJ:  cpu time    0.02: real time    0.02
     EDDAV:  cpu time  215.34: real time  215.96
       DOS:  cpu time    0.01: real time    0.01
    CHARGE:  cpu time    7.62: real time    7.63
    MIXING:  cpu time    0.02: real time    0.02
    --------------------------------------------
      LOOP:  cpu time  223.76: real time  224.41

 eigenvalue-minimisations  :  6168
 total energy-change (2. order) : 0.3843583E+02  (-0.1998675E+02)
 number of electron    1110.0001516 magnetization 
 augmentation part      709.0965750 magnetization 

 Broyden mixing:
  rms(total) = 0.12420E+01    rms(broyden)= 0.12419E+01
  rms(prec ) = 0.12865E+01
  weight for this iteration     100.00

 eigenvalues of (default mixing * dielectric matrix)
  average eigenvalue GAMMA=   0.5228
  0.6078  0.4378

 Free energy of the ion-electron system (eV)
  ---------------------------------------------------
  alpha Z        PSCENC =      1553.50845034
  Ewald energy   TEWEN  =    822425.91726277
  -Hartree energ DENC   =   -952440.20343737
  -exchange      EXHF   =         0.00000000
  -V(xc)+E(xc)   XCENC  =      4489.44001148
  PAW double counting   =    126725.03869059  -137221.46012215
  entropy T*S    EENTRO =        -0.14862867
  eigenvalues    EBANDS =     -5315.52114981
  atomic energy  EATOM  =    139416.36850200
  ---------------------------------------------------
  free energy    TOTEN  =      -367.06042082 eV

  energy without entropy =     -366.91179215  energy(sigma->0) =     -366.98610649


--------------------------------------------------------------------------------------------------------




----------------------------------------- Iteration    1(   8)  ---------------------------------------


    POTLOK:  cpu time    0.68: real time    0.68
    SETDIJ:  cpu time    0.02: real time    0.02
     EDDAV:  cpu time  216.31: real time  217.01
       DOS:  cpu time    0.01: real time    0.01
    CHARGE:  cpu time    7.60: real time    7.61
    MIXING:  cpu time    0.02: real time    0.02
    --------------------------------------------
      LOOP:  cpu time  224.63: real time  225.35

 eigenvalue-minimisations  :  6192
 total energy-change (2. order) :-0.4657642E+00  (-0.4095480E+01)
 number of electron    1110.0001504 magnetization 
 augmentation part      704.5552587 magnetization 

 Broyden mixing:
  rms(total) = 0.48410E+00    rms(broyden)= 0.48401E+00
  rms(prec ) = 0.51170E+00
  weight for this iteration     100.00

 eigenvalues of (default mixing * dielectric matrix)
  average eigenvalue GAMMA=   0.8492
  1.5559  0.6302  0.3615

 Free energy of the ion-electron system (eV)
  ---------------------------------------------------
  alpha Z        PSCENC =      1553.50845034
  Ewald energy   TEWEN  =    822425.91726277
  -Hartree energ DENC   =   -952525.76737300
  -exchange      EXHF   =         0.00000000
  -V(xc)+E(xc)   XCENC  =      4491.89028175
  PAW double counting   =    127543.77207933  -138118.58691077
  entropy T*S    EENTRO =        -0.14439490
  eigenvalues    EBANDS =     -5154.48408254
  atomic energy  EATOM  =    139416.36850200
  ---------------------------------------------------
  free energy    TOTEN  =      -367.52618502 eV

  energy without entropy =     -367.38179012  energy(sigma->0) =     -367.45398757


--------------------------------------------------------------------------------------------------------




----------------------------------------- Iteration    1(   9)  ---------------------------------------


    POTLOK:  cpu time    0.68: real time    0.68
    SETDIJ:  cpu time    0.02: real time    0.02
     EDDAV:  cpu time  225.60: real time  226.11
       DOS:  cpu time    0.01: real time    0.01
    CHARGE:  cpu time    7.55: real time    7.56
    MIXING:  cpu time    0.02: real time    0.04
    --------------------------------------------
      LOOP:  cpu time  233.88: real time  234.43

 eigenvalue-minimisations  :  6544
 total energy-change (2. order) :-0.6617017E+00  (-0.1501260E+01)
 number of electron    1110.0001489 magnetization 
 augmentation part      698.8710396 magnetization 

 Broyden mixing:
  rms(total) = 0.71797E+00    rms(broyden)= 0.71795E+00
  rms(prec ) = 0.74468E+00
  weight for this iteration     100.00

 eigenvalues of (default mixing * dielectric matrix)
  average eigenvalue GAMMA=   0.8634
  1.8168  0.6402  0.6402  0.3562

 Free energy of the ion-electron system (eV)
  ---------------------------------------------------
  alpha Z        PSCENC =      1553.50845034
  Ewald energy   TEWEN  =    822425.91726277
  -Hartree energ DENC   =   -952690.04343460
  -exchange      EXHF   =         0.00000000
  -V(xc)+E(xc)   XCENC  =      4491.14953036
  PAW double counting   =    129594.58718722  -140330.31952001
  entropy T*S    EENTRO =        -0.14021870
  eigenvalues    EBANDS =     -4829.21564605
  atomic energy  EATOM  =    139416.36850200
  ---------------------------------------------------
  free energy    TOTEN  =      -368.18788668 eV

  energy without entropy =     -368.04766797  energy(sigma->0) =     -368.11777733


--------------------------------------------------------------------------------------------------------




----------------------------------------- Iteration    1(  10)  ---------------------------------------


    POTLOK:  cpu time    0.68: real time    0.68
    SETDIJ:  cpu time    0.02: real time    0.02
     EDDAV:  cpu time  204.83: real time  205.42
       DOS:  cpu time    0.01: real time    0.01
    CHARGE:  cpu time    7.56: real time    7.57
    MIXING:  cpu time    0.02: real time    0.02
    --------------------------------------------
      LOOP:  cpu time  213.12: real time  213.72

 eigenvalue-minimisations  :  5784
 total energy-change (2. order) : 0.6434064E+00  (-0.2372095E+00)
 number of electron    1110.0001496 magnetization 
 augmentation part      700.7943173 magnetization 

 Broyden mixing:
  rms(total) = 0.41534E+00    rms(broyden)= 0.41533E+00
  rms(prec ) = 0.43586E+00
  weight for this iteration     100.00

 eigenvalues of (default mixing * dielectric matrix)
  average eigenvalue GAMMA=   0.9113
  2.1720  0.8201  0.8201  0.4054  0.3389

 Free energy of the ion-electron system (eV)
  ---------------------------------------------------
  alpha Z        PSCENC =      1553.50845034
  Ewald energy   TEWEN  =    822425.91726277
  -Hartree energ DENC   =   -952596.54466016
  -exchange      EXHF   =         0.00000000
  -V(xc)+E(xc)   XCENC  =      4485.02194602
  PAW double counting   =    130050.70738876  -140789.79521966
  entropy T*S    EENTRO =        -0.13860646
  eigenvalues    EBANDS =     -4912.58954392
  atomic energy  EATOM  =    139416.36850200
  ---------------------------------------------------
  free energy    TOTEN  =      -367.54448031 eV

  energy without entropy =     -367.40587385  energy(sigma->0) =     -367.47517708


--------------------------------------------------------------------------------------------------------




----------------------------------------- Iteration    1(  11)  ---------------------------------------


    POTLOK:  cpu time    0.68: real time    0.68
    SETDIJ:  cpu time    0.02: real time    0.02
     EDDAV:  cpu time  219.16: real time  219.87
       DOS:  cpu time    0.01: real time    0.01
    CHARGE:  cpu time    7.62: real time    7.63
    MIXING:  cpu time    0.02: real time    0.02
    --------------------------------------------
      LOOP:  cpu time  227.51: real time  228.23

 eigenvalue-minimisations  :  6312
 total energy-change (2. order) : 0.2292393E+00  (-0.1816312E+00)
 number of electron    1110.0001502 magnetization 
 augmentation part      703.3044297 magnetization 

 Broyden mixing:
  rms(total) = 0.87919E-01    rms(broyden)= 0.87877E-01
  rms(prec ) = 0.10947E+00
  weight for this iteration     100.00

 eigenvalues of (default mixing * dielectric matrix)
  average eigenvalue GAMMA=   0.9045
  2.1425  1.0726  0.7556  0.7556  0.3645  0.3364

 Free energy of the ion-electron system (eV)
  ---------------------------------------------------
  alpha Z        PSCENC =      1553.50845034
  Ewald energy   TEWEN  =    822425.91726277
  -Hartree energ DENC   =   -952516.04801357
  -exchange      EXHF   =         0.00000000
  -V(xc)+E(xc)   XCENC  =      4479.44254653
  PAW double counting   =    130419.42250771  -141155.62818315
  entropy T*S    EENTRO =        -0.14102019
  eigenvalues    EBANDS =     -4990.15729346
  atomic energy  EATOM  =    139416.36850200
  ---------------------------------------------------
  free energy    TOTEN  =      -367.31524102 eV

  energy without entropy =     -367.17422084  energy(sigma->0) =     -367.24473093


--------------------------------------------------------------------------------------------------------




----------------------------------------- Iteration    1(  12)  ---------------------------------------


    POTLOK:  cpu time    0.68: real time    0.68
    SETDIJ:  cpu time    0.02: real time    0.02
     EDDAV:  cpu time  218.84: real time  219.39
       DOS:  cpu time    0.01: real time    0.01
    CHARGE:  cpu time    7.47: real time    7.48
    MIXING:  cpu time    0.02: real time    0.02
    --------------------------------------------
      LOOP:  cpu time  227.04: real time  227.61

 eigenvalue-minimisations  :  6288
 total energy-change (2. order) :-0.3465194E-01  (-0.6322506E-01)
 number of electron    1110.0001503 magnetization 
 augmentation part      703.7858750 magnetization 

 Broyden mixing:
  rms(total) = 0.11891E+00    rms(broyden)= 0.11891E+00
  rms(prec ) = 0.12927E+00
  weight for this iteration     100.00

 eigenvalues of (default mixing * dielectric matrix)
  average eigenvalue GAMMA=   0.8344
  2.1533  1.2202  0.7183  0.7183  0.4085  0.3625  0.2598

 Free energy of the ion-electron system (eV)
  ---------------------------------------------------
  alpha Z        PSCENC =      1553.50845034
  Ewald energy   TEWEN  =    822425.91726277
  -Hartree energ DENC   =   -952547.04375258
  -exchange      EXHF   =         0.00000000
  -V(xc)+E(xc)   XCENC  =      4479.30204664
  PAW double counting   =    130509.65584594  -141249.28774062
  entropy T*S    EENTRO =        -0.14106964
  eigenvalues    EBANDS =     -4955.62943781
  atomic energy  EATOM  =    139416.36850200
  ---------------------------------------------------
  free energy    TOTEN  =      -367.34989296 eV

  energy without entropy =     -367.20882332  energy(sigma->0) =     -367.27935814


--------------------------------------------------------------------------------------------------------




----------------------------------------- Iteration    1(  13)  ---------------------------------------


    POTLOK:  cpu time    0.69: real time    0.69
    SETDIJ:  cpu time    0.06: real time    0.06
     EDDAV:  cpu time  214.12: real time  214.56
       DOS:  cpu time    0.01: real time    0.01
    CHARGE:  cpu time    7.63: real time    7.68
    MIXING:  cpu time    0.02: real time    0.02
    --------------------------------------------
      LOOP:  cpu time  222.54: real time  223.02

 eigenvalue-minimisations  :  6120
 total energy-change (2. order) : 0.8519315E-02  (-0.1808806E-01)
 number of electron    1110.0001503 magnetization 
 augmentation part      703.8573981 magnetization 

 Broyden mixing:
  rms(total) = 0.95085E-01    rms(broyden)= 0.95084E-01
  rms(prec ) = 0.10157E+00
  weight for this iteration     100.00

 eigenvalues of (default mixing * dielectric matrix)
  average eigenvalue GAMMA=   0.9150
  2.1266  1.8047  0.8521  0.8521  0.6759  0.3784  0.3417  0.2881

 Free energy of the ion-electron system (eV)
  ---------------------------------------------------
  alpha Z        PSCENC =      1553.50845034
  Ewald energy   TEWEN  =    822425.91726277
  -Hartree energ DENC   =   -952571.42455672
  -exchange      EXHF   =         0.00000000
  -V(xc)+E(xc)   XCENC  =      4479.57667991
  PAW double counting   =    130542.03177522  -141284.85336773
  entropy T*S    EENTRO =        -0.13998558
  eigenvalues    EBANDS =     -4928.32613386
  atomic energy  EATOM  =    139416.36850200
  ---------------------------------------------------
  free energy    TOTEN  =      -367.34137365 eV

  energy without entropy =     -367.20138807  energy(sigma->0) =     -367.27138086


--------------------------------------------------------------------------------------------------------




----------------------------------------- Iteration    1(  14)  ---------------------------------------


    POTLOK:  cpu time    0.68: real time    0.68
    SETDIJ:  cpu time    0.02: real time    0.02
     EDDAV:  cpu time  225.10: real time  225.54
       DOS:  cpu time    0.01: real time    0.01
    CHARGE:  cpu time    7.57: real time    7.58
    MIXING:  cpu time    0.02: real time    0.02
    --------------------------------------------
      LOOP:  cpu time  233.40: real time  233.86

 eigenvalue-minimisations  :  6536
 total energy-change (2. order) : 0.3118704E-01  (-0.9958872E-02)
 number of electron    1110.0001501 magnetization 
 augmentation part      703.1214791 magnetization 

 Broyden mixing:
  rms(total) = 0.31905E-01    rms(broyden)= 0.31898E-01
  rms(prec ) = 0.36735E-01
  weight for this iteration     100.00

 eigenvalues of (default mixing * dielectric matrix)
  average eigenvalue GAMMA=   0.9263
  2.3449  1.9498  0.8655  0.8655  0.7411  0.5409  0.3754  0.3522  0.3014

 Free energy of the ion-electron system (eV)
  ---------------------------------------------------
  alpha Z        PSCENC =      1553.50845034
  Ewald energy   TEWEN  =    822425.91726277
  -Hartree energ DENC   =   -952650.87484658
  -exchange      EXHF   =         0.00000000
  -V(xc)+E(xc)   XCENC  =      4481.00645525
  PAW double counting   =    130599.89115941  -141354.61816421
  entropy T*S    EENTRO =        -0.13887536
  eigenvalues    EBANDS =     -4838.37013022
  atomic energy  EATOM  =    139416.36850200
  ---------------------------------------------------
  free energy    TOTEN  =      -367.31018661 eV

  energy without entropy =     -367.17131125  energy(sigma->0) =     -367.24074893


--------------------------------------------------------------------------------------------------------




----------------------------------------- Iteration    1(  15)  ---------------------------------------


    POTLOK:  cpu time    0.67: real time    0.68
    SETDIJ:  cpu time    0.02: real time    0.02
     EDDAV:  cpu time  216.46: real time  216.88
       DOS:  cpu time    0.01: real time    0.01
    CHARGE:  cpu time    7.50: real time    7.51
    MIXING:  cpu time    0.02: real time    0.02
    --------------------------------------------
      LOOP:  cpu time  224.68: real time  225.12

 eigenvalue-minimisations  :  6208
 total energy-change (2. order) : 0.1911897E-02  (-0.2686905E-02)
 number of electron    1110.0001501 magnetization 
 augmentation part      703.1106165 magnetization 

 Broyden mixing:
  rms(total) = 0.28038E-01    rms(broyden)= 0.28036E-01
  rms(prec ) = 0.31720E-01
  weight for this iteration     100.00

 eigenvalues of (default mixing * dielectric matrix)
  average eigenvalue GAMMA=   0.9311
  2.5228  1.7873  1.2123  0.8681  0.8681  0.6850  0.3819  0.3474  0.3112  0.3265

 Free energy of the ion-electron system (eV)
  ---------------------------------------------------
  alpha Z        PSCENC =      1553.50845034
  Ewald energy   TEWEN  =    822425.91726277
  -Hartree energ DENC   =   -952675.47881264
  -exchange      EXHF   =         0.00000000
  -V(xc)+E(xc)   XCENC  =      4480.84954288
  PAW double counting   =    130615.82914488  -141371.52963145
  entropy T*S    EENTRO =        -0.13781261
  eigenvalues    EBANDS =     -4812.63492088
  atomic energy  EATOM  =    139416.36850200
  ---------------------------------------------------
  free energy    TOTEN  =      -367.30827471 eV

  energy without entropy =     -367.17046210  energy(sigma->0) =     -367.23936841


--------------------------------------------------------------------------------------------------------




----------------------------------------- Iteration    1(  16)  ---------------------------------------


    POTLOK:  cpu time    0.74: real time    0.74
    SETDIJ:  cpu time    0.04: real time    0.04
     EDDAV:  cpu time  212.89: real time  213.38
       DOS:  cpu time    0.01: real time    0.01
    CHARGE:  cpu time    7.59: real time    7.60
    MIXING:  cpu time    0.02: real time    0.03
    --------------------------------------------
      LOOP:  cpu time  221.30: real time  221.81

 eigenvalue-minimisations  :  6072
 total energy-change (2. order) : 0.2079324E-02  (-0.7370012E-03)
 number of electron    1110.0001501 magnetization 
 augmentation part      703.1370476 magnetization 

 Broyden mixing:
  rms(total) = 0.15433E-01    rms(broyden)= 0.15432E-01
  rms(prec ) = 0.18722E-01
  weight for this iteration     100.00

 eigenvalues of (default mixing * dielectric matrix)
  average eigenvalue GAMMA=   1.0227
  2.4464  2.1231  2.1231  0.8203  0.8203  0.8506  0.6645  0.3976  0.3635  0.3446
  0.2955

 Free energy of the ion-electron system (eV)
  ---------------------------------------------------
  alpha Z        PSCENC =      1553.50845034
  Ewald energy   TEWEN  =    822425.91726277
  -Hartree energ DENC   =   -952696.81722679
  -exchange      EXHF   =         0.00000000
  -V(xc)+E(xc)   XCENC  =      4480.75204205
  PAW double counting   =    130616.24246535  -141372.14133651
  entropy T*S    EENTRO =        -0.13777485
  eigenvalues    EBANDS =     -4790.99857975
  atomic energy  EATOM  =    139416.36850200
  ---------------------------------------------------
  free energy    TOTEN  =      -367.30619539 eV

  energy without entropy =     -367.16842054  energy(sigma->0) =     -367.23730796


--------------------------------------------------------------------------------------------------------




----------------------------------------- Iteration    1(  17)  ---------------------------------------


    POTLOK:  cpu time    0.67: real time    0.68
    SETDIJ:  cpu time    0.02: real time    0.02
     EDDAV:  cpu time  208.71: real time  209.15
       DOS:  cpu time    0.01: real time    0.01
    CHARGE:  cpu time    7.68: real time    7.71
    MIXING:  cpu time    0.02: real time    0.02
    --------------------------------------------
      LOOP:  cpu time  217.12: real time  217.59

 eigenvalue-minimisations  :  5920
 total energy-change (2. order) : 0.2319427E-03  (-0.1053475E-02)
 number of electron    1110.0001502 magnetization 
 augmentation part      703.3244262 magnetization 

 Broyden mixing:
  rms(total) = 0.18038E-01    rms(broyden)= 0.18037E-01
  rms(prec ) = 0.19659E-01
  weight for this iteration     100.00

 eigenvalues of (default mixing * dielectric matrix)
  average eigenvalue GAMMA=   1.0186
  2.6944  2.6944  1.7867  0.9485  0.8349  0.8349  0.6673  0.2949  0.3733  0.3733
  0.3797  0.3406

 Free energy of the ion-electron system (eV)
  ---------------------------------------------------
  alpha Z        PSCENC =      1553.50845034
  Ewald energy   TEWEN  =    822425.91726277
  -Hartree energ DENC   =   -952730.96721984
  -exchange      EXHF   =         0.00000000
  -V(xc)+E(xc)   XCENC  =      4480.52281760
  PAW double counting   =    130574.68056943  -141327.49031376
  entropy T*S    EENTRO =        -0.13722478
  eigenvalues    EBANDS =     -4759.70880720
  atomic energy  EATOM  =    139416.36850200
  ---------------------------------------------------
  free energy    TOTEN  =      -367.30596345 eV

  energy without entropy =     -367.16873867  energy(sigma->0) =     -367.23735106


--------------------------------------------------------------------------------------------------------




----------------------------------------- Iteration    1(  18)  ---------------------------------------


    POTLOK:  cpu time    0.67: real time    0.68
    SETDIJ:  cpu time    0.02: real time    0.02
     EDDAV:  cpu time  214.11: real time  214.54
       DOS:  cpu time    0.01: real time    0.01
    CHARGE:  cpu time    7.60: real time    7.61
    MIXING:  cpu time    0.02: real time    0.02
    --------------------------------------------
      LOOP:  cpu time  222.45: real time  222.88

 eigenvalue-minimisations  :  6056
[...]
   0.209E+02 0.253E-10 0.130E+04   -.211E+02 -.109E-10 -.130E+04   0.955E-01 0.000E+00 -.376E+00   -.133E-02 0.201E-12 -.380E-03
   0.167E-11 0.124E+02 0.131E+04   -.185E-10 -.124E+02 -.131E+04   0.000E+00 0.795E-02 -.384E+00   -.262E-12 -.153E-02 -.285E-03
   -.560E+01 0.292E+01 0.129E+04   0.556E+01 -.300E+01 -.129E+04   0.409E-01 0.953E-01 -.400E+00   -.710E-03 -.116E-02 -.264E-03
   0.246E+00 0.487E+01 0.129E+04   -.259E+00 -.477E+01 -.129E+04   0.140E-01 -.118E+00 -.451E+00   0.192E-03 -.734E-04 0.769E-04
   0.560E+01 -.292E+01 0.129E+04   -.556E+01 0.300E+01 -.129E+04   -.409E-01 -.953E-01 -.400E+00   0.710E-03 0.116E-02 -.264E-03
   -.104E-10 -.124E+02 0.131E+04   -.491E-10 0.124E+02 -.131E+04   0.000E+00 -.795E-02 -.384E+00   0.229E-13 0.153E-02 -.285E-03
   -.209E+02 0.246E-10 0.130E+04   0.211E+02 -.503E-10 -.130E+04   -.955E-01 0.000E+00 -.376E+00   0.133E-02 0.485E-12 -.380E-03
   -.665E+01 -.732E+01 0.128E+04   0.659E+01 0.739E+01 -.128E+04   0.222E-01 -.105E-01 -.636E+00   0.113E-02 0.216E-03 -.462E-03
   -.246E+00 -.487E+01 0.129E+04   0.259E+00 0.477E+01 -.129E+04   -.140E-01 0.118E+00 -.451E+00   -.192E-03 0.734E-04 0.769E-04
   -.826E-11 -.972E+01 0.129E+04   0.200E-10 0.945E+01 -.129E+04   0.000E+00 0.291E+00 -.708E+00   -.284E-13 0.464E-03 0.450E-03
   -.560E+01 -.292E+01 0.129E+04   0.556E+01 0.300E+01 -.129E+04   0.409E-01 -.953E-01 -.400E+00   -.710E-03 0.116E-02 -.264E-03
   -.665E+01 0.732E+01 0.128E+04   0.659E+01 -.739E+01 -.128E+04   0.222E-01 0.105E-01 -.636E+00   0.113E-02 -.216E-03 -.462E-03
   0.511E+01 0.114E-11 0.128E+04   -.506E+01 0.403E-10 -.128E+04   -.144E+00 0.000E+00 -.265E+00   0.337E-03 -.182E-12 0.604E-04
   0.356E+00 -.693E+01 0.128E+04   -.349E+00 0.706E+01 -.128E+04   -.228E-01 -.103E+00 -.449E+00   0.869E-03 0.202E-03 0.629E-03
   -.456E-07 -.108E+02 -.122E+04   -.438E-11 0.107E+02 0.122E+04   0.000E+00 0.993E-01 0.186E+00   -.155E-12 0.421E-03 -.736E-04
   -.312E+01 -.167E+02 -.120E+04   0.305E+01 0.169E+02 0.120E+04   0.723E-01 -.183E+00 0.486E+00   -.102E-02 0.733E-03 -.116E-03
   -.996E+01 -.359E+01 -.119E+04   0.996E+01 0.355E+01 0.119E+04   0.365E-02 0.410E-01 0.306E+00   0.979E-03 0.647E-03 0.159E-03
   -.692E+01 0.861E+01 -.121E+04   0.685E+01 -.869E+01 0.121E+04   0.655E-01 0.807E-01 0.317E+00   0.523E-03 -.342E-03 0.314E-03
   -.402E+01 0.268E-10 -.122E+04   0.403E+01 -.385E-10 0.122E+04   -.112E-01 0.000E+00 0.368E+00   0.990E-03 -.215E-12 0.216E-03
   0.402E+01 0.228E-10 -.122E+04   -.403E+01 0.124E-12 0.122E+04   0.112E-01 -.108E-18 0.368E+00   -.990E-03 -.135E-12 0.216E-03
   0.692E+01 -.861E+01 -.121E+04   -.685E+01 0.869E+01 0.121E+04   -.655E-01 -.807E-01 0.317E+00   -.523E-03 0.342E-03 0.314E-03
   0.996E+01 0.359E+01 -.119E+04   -.996E+01 -.355E+01 0.119E+04   -.365E-02 -.410E-01 0.306E+00   -.979E-03 -.647E-03 0.159E-03
   0.312E+01 0.167E+02 -.120E+04   -.305E+01 -.169E+02 0.120E+04   -.723E-01 0.183E+00 0.486E+00   0.102E-02 -.733E-03 -.116E-03
   -.456E-07 0.108E+02 -.122E+04   -.129E-11 -.107E+02 0.122E+04   0.000E+00 -.993E-01 0.186E+00   -.155E-12 -.421E-03 -.736E-04
   0.692E+01 0.861E+01 -.121E+04   -.685E+01 -.869E+01 0.121E+04   -.655E-01 0.807E-01 0.317E+00   -.523E-03 -.342E-03 0.314E-03
   0.309E+02 -.219E-10 -.125E+04   -.305E+02 0.295E-10 0.125E+04   -.354E+00 0.000E+00 -.737E-01   -.259E-03 -.877E-13 0.124E-02
   0.276E+02 0.834E+01 -.120E+04   -.273E+02 -.817E+01 0.120E+04   -.292E+00 -.165E+00 -.318E-01   -.255E-03 0.206E-03 0.952E-03
   0.743E-06 0.298E+02 -.117E+04   -.376E-10 -.288E+02 0.117E+04   0.000E+00 -.101E+01 -.645E+00   -.241E-12 -.116E-02 -.371E-03
   -.312E+01 0.167E+02 -.120E+04   0.305E+01 -.169E+02 0.120E+04   0.723E-01 0.183E+00 0.486E+00   -.102E-02 -.733E-03 -.116E-03
   0.996E+01 -.359E+01 -.119E+04   -.996E+01 0.355E+01 0.119E+04   -.365E-02 0.410E-01 0.306E+00   -.979E-03 0.647E-03 0.159E-03
   0.276E+02 -.834E+01 -.120E+04   -.273E+02 0.817E+01 0.120E+04   -.292E+00 0.165E+00 -.318E-01   -.255E-03 -.206E-03 0.952E-03
   -.256E-11 0.425E-10 -.111E+04   -.253E-10 0.443E-10 0.111E+04   0.000E+00 0.000E+00 0.136E+01   -.279E-12 0.376E-12 0.164E-02
   -.276E+02 0.834E+01 -.120E+04   0.273E+02 -.817E+01 0.120E+04   0.292E+00 -.165E+00 -.318E-01   0.255E-03 0.206E-03 0.952E-03
   -.996E+01 0.359E+01 -.119E+04   0.996E+01 -.355E+01 0.119E+04   0.365E-02 -.410E-01 0.306E+00   0.979E-03 -.647E-03 0.159E-03
   0.312E+01 -.167E+02 -.120E+04   -.305E+01 0.169E+02 0.120E+04   -.723E-01 -.183E+00 0.486E+00   0.102E-02 0.733E-03 -.116E-03
   0.743E-06 -.298E+02 -.117E+04   -.828E-10 0.288E+02 0.117E+04   0.000E+00 0.101E+01 -.645E+00   -.137E-12 0.116E-02 -.371E-03
   -.276E+02 -.834E+01 -.120E+04   0.273E+02 0.817E+01 0.120E+04   0.292E+00 0.165E+00 -.318E-01   0.255E-03 -.206E-03 0.952E-03
   -.309E+02 -.180E-10 -.125E+04   0.305E+02 0.825E-10 0.125E+04   0.354E+00 0.000E+00 -.737E-01   0.259E-03 0.117E-12 0.124E-02
   -.692E+01 -.861E+01 -.121E+04   0.685E+01 0.869E+01 0.121E+04   0.655E-01 -.807E-01 0.317E+00   0.523E-03 0.342E-03 0.314E-03
   0.835E+01 -.981E+01 -.366E+04   -.838E+01 0.985E+01 0.366E+04   0.368E-01 -.393E-01 0.372E+01   -.524E-03 0.607E-03 0.828E-03
   0.511E+01 -.100E+02 -.365E+04   -.512E+01 0.998E+01 0.364E+04   0.443E-02 0.170E-01 0.356E+01   -.103E-05 0.319E-03 0.106E-02
   -.511E+01 0.100E+02 -.365E+04   0.512E+01 -.998E+01 0.364E+04   -.443E-02 -.170E-01 0.356E+01   0.103E-05 -.319E-03 0.106E-02
   -.835E+01 0.981E+01 -.366E+04   0.838E+01 -.985E+01 0.366E+04   -.368E-01 0.393E-01 0.372E+01   0.524E-03 -.607E-03 0.828E-03
   0.315E-10 0.769E-10 -.367E+04   0.307E-11 0.202E-10 0.367E+04   0.000E+00 0.000E+00 0.378E+01   -.213E-12 -.411E-13 0.316E-03
   0.311E+02 -.136E-10 -.365E+04   -.311E+02 0.182E-10 0.365E+04   0.477E-01 0.000E+00 0.362E+01   -.344E-03 -.133E-12 0.112E-02
   0.542E+02 0.169E+02 -.363E+04   -.541E+02 -.167E+02 0.363E+04   -.339E-01 -.161E+00 0.380E+01   -.681E-03 0.998E-03 0.103E-02
   0.339E+02 0.529E+02 -.361E+04   -.338E+02 -.532E+02 0.361E+04   -.676E-01 0.222E+00 0.380E+01   -.159E-03 -.917E-03 0.719E-03
   0.449E-06 0.433E+02 -.364E+04   0.407E-11 -.433E+02 0.364E+04   0.867E-18 -.330E-02 0.355E+01   -.153E-12 -.117E-02 0.283E-03
   0.835E+01 0.981E+01 -.366E+04   -.838E+01 -.985E+01 0.366E+04   0.368E-01 0.393E-01 0.372E+01   -.524E-03 -.607E-03 0.828E-03
   0.542E+02 -.169E+02 -.363E+04   -.541E+02 0.167E+02 0.363E+04   -.339E-01 0.161E+00 0.380E+01   -.681E-03 -.998E-03 0.103E-02
   0.201E+03 0.311E-10 -.362E+04   -.203E+03 -.337E-10 0.361E+04   0.221E+01 0.000E+00 0.384E+01   -.143E-02 -.587E-14 0.553E-03
   0.495E-05 0.156E+03 -.348E+04   -.153E-10 -.153E+03 0.349E+04   0.000E+00 -.288E+01 -.162E+01   -.288E-12 -.155E-03 -.913E-04
   -.339E+02 0.529E+02 -.361E+04   0.338E+02 -.532E+02 0.361E+04   0.676E-01 0.222E+00 0.380E+01   0.159E-03 -.917E-03 0.719E-03
   0.511E+01 0.100E+02 -.365E+04   -.512E+01 -.998E+01 0.364E+04   0.443E-02 -.170E-01 0.356E+01   -.103E-05 -.319E-03 0.106E-02
   0.339E+02 -.529E+02 -.361E+04   -.338E+02 0.532E+02 0.361E+04   -.676E-01 -.222E+00 0.380E+01   -.159E-03 0.917E-03 0.719E-03
   0.495E-05 -.156E+03 -.348E+04   0.224E-10 0.153E+03 0.349E+04   0.000E+00 0.288E+01 -.162E+01   -.107E-12 0.155E-03 -.913E-04
   -.201E+03 0.247E-10 -.362E+04   0.203E+03 -.966E-11 0.361E+04   -.221E+01 0.000E+00 0.384E+01   0.143E-02 0.110E-12 0.553E-03
   -.542E+02 0.169E+02 -.363E+04   0.541E+02 -.167E+02 0.363E+04   0.339E-01 -.161E+00 0.380E+01   0.681E-03 0.998E-03 0.103E-02
   -.511E+01 -.100E+02 -.365E+04   0.512E+01 0.998E+01 0.364E+04   -.443E-02 0.170E-01 0.356E+01   0.103E-05 0.319E-03 0.106E-02
   0.449E-06 -.433E+02 -.364E+04   0.739E-11 0.433E+02 0.364E+04   -.434E-18 0.330E-02 0.355E+01   -.129E-12 0.117E-02 0.283E-03
   -.339E+02 -.529E+02 -.361E+04   0.338E+02 0.532E+02 0.361E+04   0.676E-01 -.222E+00 0.380E+01   0.159E-03 0.917E-03 0.719E-03
   -.542E+02 -.169E+02 -.363E+04   0.541E+02 0.167E+02 0.363E+04   0.339E-01 0.161E+00 0.380E+01   0.681E-03 -.998E-03 0.103E-02
   -.311E+02 -.364E-10 -.365E+04   0.311E+02 0.274E-10 0.365E+04   -.477E-01 0.000E+00 0.362E+01   0.344E-03 -.160E-12 0.112E-02
   -.835E+01 -.981E+01 -.366E+04   0.838E+01 0.985E+01 0.366E+04   -.368E-01 -.393E-01 0.372E+01   0.524E-03 0.607E-03 0.828E-03
   0.240E-07 0.861E+02 -.165E+04   -.159E-11 -.898E+02 0.164E+04   0.000E+00 0.373E+01 0.980E+00   -.261E-13 0.139E-02 0.110E-02
   0.240E-07 -.861E+02 -.165E+04   -.629E-12 0.898E+02 0.164E+04   0.000E+00 -.373E+01 0.980E+00   -.248E-13 -.139E-02 0.110E-02
   0.541E-08 0.343E+02 -.434E+03   -.263E-12 -.371E+02 0.439E+03   0.000E+00 0.276E+01 -.477E+01   -.537E-14 0.276E-03 -.891E-04
   0.541E-08 -.343E+02 -.434E+03   -.156E-12 0.371E+02 0.439E+03   0.000E+00 -.276E+01 -.477E+01   -.136E-13 -.276E-03 -.891E-04
 -----------------------------------------------------------------------------------------------
   -.341E-04 0.134E-08 0.220E+02   -.113E-11 0.533E-12 0.125E-10   -.513E-15 -.133E-14 -.219E+02   -.173E-10 0.139E-11 0.342E-01
 
 
 POSITION                                       TOTAL-FORCE (eV/Angst)
 -----------------------------------------------------------------------------------
      0.00000      0.00000      0.00000        -0.000000      0.028711      0.127471
      1.81500     -1.81500      0.00000        -0.016025      0.001995      0.162147
      3.63000     -3.63000      0.00000         0.004451     -0.006099      0.163876
      5.44500     -5.44500      0.00000        -0.000110      0.000238      0.160518
      7.26000     -7.26000      0.00000         0.038055      0.000000      0.157803
      1.81500      1.81500      0.00000        -0.038055      0.000000      0.157803
      3.63000      0.00000      0.00000         0.000110     -0.000238      0.160518
      5.44500     -1.81500      0.00000        -0.004451      0.006099      0.163876
      7.26000     -3.63000      0.00000         0.016025     -0.001995      0.162147
      9.07500     -5.44500      0.00000        -0.000000     -0.028711      0.127471
      3.63000      3.63000      0.00000         0.000110      0.000238      0.160518
      5.44500      1.81500      0.00000         0.005888      0.000000      0.166442
      7.26000      0.00000      0.00000         0.000693      0.010907      0.169373
      9.07500     -1.81500      0.00000        -0.000000     -0.018111      0.163754
     10.89000     -3.63000      0.00000        -0.016025     -0.001995      0.162147
      5.44500      5.44500      0.00000        -0.004451     -0.006099      0.163876
      7.26000      3.63000      0.00000         0.000693     -0.010907      0.169373
      9.07500      1.81500      0.00000        -0.000000      0.000000      0.157324
     10.89000      0.00000      0.00000        -0.000693      0.010907      0.169373
     12.70500     -1.81500      0.00000         0.004451      0.006099      0.163876
      7.26000      7.26000      0.00000         0.016025      0.001995      0.162147
      9.07500      5.44500      0.00000        -0.000000      0.018111      0.163754
     10.89000      3.63000      0.00000        -0.000693     -0.010907      0.169373
     12.70500      1.81500      0.00000        -0.005888      0.000000      0.166442
     14.52000      0.00000      0.00000        -0.000110     -0.000238      0.160518
      1.81500      0.00000      1.81500         0.014966      0.022218     -0.174614
      3.63000     -1.81500      1.81500         0.000956      0.016236     -0.180679
      5.44500     -3.63000      1.81500        -0.000956     -0.016236     -0.180679
      7.26000     -5.44500      1.81500        -0.014966     -0.022218     -0.174614
      9.07500     -7.26000      1.81500        -0.000000      0.000000     -0.173988
      3.63000      1.81500      1.81500         0.093346      0.000000     -0.101574
      5.44500      0.00000      1.81500         0.038958      0.055370     -0.147224
      7.26000     -1.81500      1.81500        -0.005460      0.015315     -0.149916
      9.07500     -3.63000      1.81500        -0.000000     -0.025632     -0.196603
     10.89000     -5.44500      1.81500         0.014966     -0.022218     -0.174614
      5.44500      3.63000      1.81500         0.038958     -0.055370     -0.147224
      7.26000      1.81500      1.81500        -0.042948      0.000000     -0.164826
      9.07500      0.00000      1.81500        -0.000000     -0.069046     -0.168924
     10.89000     -1.81500      1.81500         0.005460      0.015315     -0.149916
     12.70500     -3.63000      1.81500         0.000956     -0.016236     -0.180679
      7.26000      5.44500      1.81500        -0.005460     -0.015315     -0.149916
      9.07500      3.63000      1.81500        -0.000000      0.069046     -0.168924
     10.89000      1.81500      1.81500         0.042948      0.000000     -0.164826
     12.70500      0.00000      1.81500        -0.038958      0.055370     -0.147224
     14.52000     -1.81500      1.81500        -0.000956      0.016236     -0.180679
      9.07500      7.26000      1.81500        -0.000000      0.025632     -0.196603
     10.89000      5.44500      1.81500         0.005460     -0.015315     -0.149916
     12.70500      3.63000      1.81500        -0.038958     -0.055370     -0.147224
     14.52000      1.81500      1.81500        -0.093346      0.000000     -0.101574
     16.33500      0.00000      1.81500        -0.014966      0.022218     -0.174614
      9.07500     -9.07115      3.64621        -0.000000      0.000208     -0.000813
      1.82570     -1.79774      3.63984        -0.000448     -0.000834     -0.000630
     12.70503      5.44019      3.63888        -0.000197      0.000156      0.000155
     14.50425      3.61056      3.64601        -0.000732      0.000363     -0.000337
     16.33211      1.81500      3.65205        -0.000325      0.000000     -0.001037
      1.81789      1.81500      3.65205         0.000325      0.000000     -0.001037
      3.64575      0.01944      3.64601         0.000732     -0.000363     -0.000337
      5.44497     -1.81019      3.63888         0.000197     -0.000156      0.000155
      7.24930     -3.64726      3.63984         0.000448      0.000834     -0.000630
      9.07500     -5.44885      3.64621        -0.000000     -0.000208     -0.000813
      3.64575      3.61056      3.64601         0.000732      0.000363     -0.000337
      5.51838      1.81500      3.69768         0.001803      0.000000     -0.003114
      7.28186      0.01124      3.66634         0.002225     -0.000064      0.002850
      9.07500     -1.83077      3.63897        -0.000000      0.001635      0.002259
     10.90070     -3.64726      3.63984        -0.000448      0.000834     -0.000630
      5.44497      5.44019      3.63888         0.000197      0.000156      0.000155
      7.28186      3.61876      3.66634         0.002225      0.000064      0.002850
      9.07500      1.81500      3.60209        -0.000000      0.000000     -0.000454
     10.86814      0.01124      3.66634        -0.002225     -0.000064      0.002850
     12.70503     -1.81019      3.63888        -0.000197     -0.000156      0.000155
     16.32430     -1.79774      3.63984         0.000448     -0.000834     -0.000630
      9.07500      5.46077      3.63897        -0.000000     -0.001635      0.002259
     10.86814      3.61876      3.66634        -0.002225      0.000064      0.002850
     12.63162      1.81500      3.69768        -0.001803      0.000000     -0.003114
     14.50425      0.01944      3.64601        -0.000732     -0.000363     -0.000337
      1.81996      0.00279      5.41687         0.001015      0.000716     -0.001295
      3.66353     -1.78479      5.41152         0.000290      0.000288      0.000033
      5.41147     -3.66021      5.41152        -0.000290     -0.000288      0.000033
      7.25504     -5.44779      5.41687        -0.001015     -0.000716     -0.001295
      9.07500     -7.26000      5.42321        -0.000000      0.000000      0.000187
      3.64276      1.81500      5.42458         0.002410      0.000000     -0.002548
      5.47975      0.02099      5.42464         0.001861      0.001546     -0.000819
      7.21408     -1.86871      5.40213        -0.000221     -0.001497      0.001583
      9.07500     -3.62702      5.40780        -0.000000     -0.001066     -0.000483
     10.89496     -5.44779      5.41687         0.001015     -0.000716     -0.001295
      5.47975      3.60901      5.42464         0.001861     -0.001546     -0.000819
      7.39125      1.81500      5.61494         0.003776      0.000000      0.000180
      9.07500     -0.15722      5.46624        -0.000000     -0.002362      0.009022
     10.93592     -1.86871      5.40213         0.000221     -0.001497      0.001583
     12.73853     -3.66021      5.41152         0.000290     -0.000288      0.000033
      7.21408      5.49871      5.40213        -0.000221      0.001497      0.001583
      9.07500      3.78722      5.46624        -0.000000      0.002362      0.009022
     10.75875      1.81500      5.61494        -0.003776      0.000000      0.000180
     12.67025      0.02099      5.42464        -0.001861      0.001546     -0.000819
     14.48647     -1.78479      5.41152        -0.000290      0.000288      0.000033
      9.07500      7.25702      5.40780        -0.000000      0.001066     -0.000483
     10.93592      5.49871      5.40213         0.000221      0.001497      0.001583
     12.67025      3.60901      5.42464        -0.001861     -0.001546     -0.000819
     14.50724      1.81500      5.42458        -0.002410      0.000000     -0.002548
     16.33004      0.00279      5.41687        -0.001015      0.000716     -0.001295
      9.07500      1.12865      6.93276        -0.000000      0.008454      0.005677
      9.07500      2.50135      6.93276        -0.000000     -0.008454      0.005677
      9.07500      0.58421      7.88997        -0.000000     -0.000248      0.005736
      9.07500      3.04579      7.88997        -0.000000      0.000248      0.005736
 -----------------------------------------------------------------------------------
    total drift:                               -0.000034      0.000000      0.071036


--------------------------------------------------------------------------------------------------------



  FREE ENERGIE OF THE ION-ELECTRON SYSTEM (eV)
  ---------------------------------------------------
  free  energy   TOTEN  =      -367.31157966 eV

  energy  without entropy=     -367.17477191  energy(sigma->0) =     -367.24317579
 


--------------------------------------------------------------------------------------------------------


    POTLOK:  cpu time    0.73: real time    0.76


--------------------------------------------------------------------------------------------------------


 writing wavefunctions
     LOOP+:  cpu time 6305.04: real time 6323.71
    4ORBIT:  cpu time    0.00: real time    0.00

 total amount of memory used by VASP on root node   296825. kBytes
========================================================================

   base      :      30000. kBytes
   nonl-proj :      14653. kBytes
   fftplans  :      22249. kBytes
   grid      :      41875. kBytes
   one-center:         77. kBytes
   wavefun   :     187971. kBytes
 
  
  
 General timing and accounting informations for this job:
 ========================================================
  
                  Total CPU time used (sec):     6434.424
                            User time (sec):     6320.597
                          System time (sec):      113.827
                         Elapsed time (sec):     6456.352
  
                   Maximum memory used (kb):      363840.
                   Average memory used (kb):           0.
  
                          Minor page faults:       406852
                          Major page faults:           47
                 Voluntary context switches:         2551
