[Molden Format]
[FREQ]
  250.2947
   50.1208
   32.2236
   31.7653
   21.9245
   21.7115
   21.5230
   21.4444
   21.3783
   21.3316
   21.2669
   21.1963
   17.6859
   17.5509
   17.4938
   17.4110
   17.3859
   17.2963
   17.1786
   17.1256
   17.0929
   17.0569
   17.0215
   16.9914
   16.9230
   16.9023
   16.8329
   16.8018
   16.7297
   16.6470
   16.5796
   16.5570
   16.5019
   16.3500
   16.3164
   15.5321
   15.4011
   15.3732
   15.3622
   15.2869
   15.2179
   15.1842
   15.1345
   12.7942
   10.4696
    9.9562
    9.2544
    9.0737
    8.8522
    8.7887
    8.0775
    7.7693
    5.1944
    4.1914
[FR-COORD]
Cu       19.42518      19.42518       0.03129
Cu        0.00242       4.85812       0.03066
Cu        0.00242       9.71356       0.03066
Cu       19.42518      14.57537       0.03129
Cu        4.85812       0.00242       0.03066
Cu        4.85651       4.85651       0.03169
Cu        4.85651       9.71517       0.03169
Cu        4.85812      14.56925       0.03066
Cu        9.71356       0.00242       0.03066
Cu        9.71517       4.85651       0.03169
Cu        9.71517       9.71517       0.03169
Cu        9.71356      14.56925       0.03066
Cu       14.57537      19.42518       0.03129
Cu       14.56925       4.85812       0.03066
Cu       14.56925       9.71356       0.03066
Cu       14.57537      14.57537       0.03129
Cu        2.43122       2.43122       3.40127
Cu        2.42789       7.28584       3.39700
Cu        2.43122      12.14045       3.40127
Cu        2.43107      17.00029       3.40204
Cu        7.28584       2.42789       3.39700
Cu        7.28584       7.28584       3.40190
Cu        7.28584      12.14379       3.39700
Cu        7.28584      17.00029       3.40186
Cu       12.14045       2.43122       3.40127
Cu       12.14379       7.28584       3.39700
Cu       12.14045      12.14045       3.40127
Cu       12.14060      17.00029       3.40204
Cu       17.00029       2.43107       3.40204
Cu       17.00029       7.28584       3.40186
Cu       17.00029      12.14060       3.40204
Cu       17.00029      17.00029       3.39879
Cu       19.42869      19.42869       6.90157
Cu        0.00017       4.85708       6.90240
Cu        0.00017       9.71459       6.90240
Cu       19.42869      14.57187       6.90157
Cu        4.85708       0.00017       6.90240
Cu        4.86204       4.86204       6.89826
Cu        4.86204       9.70964       6.89826
Cu        4.85708      14.57151       6.90240
Cu        9.71459       0.00017       6.90240
Cu        9.70964       4.86204       6.89826
Cu        9.70964       9.70964       6.89826
Cu        9.71459      14.57151       6.90240
Cu       14.57187      19.42869       6.90157
Cu       14.57151       4.85708       6.90240
Cu       14.57151       9.71459       6.90240
Cu       14.57187      14.57187       6.90157
Cu        2.42660       2.42660      10.26762
Cu        2.40780       7.28584      10.26992
Cu        2.42660      12.14507      10.26762
Cu        2.42973      17.00029      10.27163
Cu        7.28584       2.40780      10.26992
Cu        7.28584       7.28584      10.45899
Cu        7.28584      12.16388      10.26992
Cu        7.28584      17.00029      10.27454
Cu       12.14507       2.42660      10.26762
Cu       12.16388       7.28584      10.26992
Cu       12.14507      12.14507      10.26762
Cu       12.14194      17.00029      10.27163
Cu       17.00029       2.42973      10.27163
Cu       17.00029       7.28584      10.27454
Cu       17.00029      12.14194      10.27163
Cu       17.00029      17.00029      10.27360
C         7.28584       7.28584      13.93558
O         7.28584       7.28584      16.12116
[FR-NORM-COORD]
vibration 1
       0.00000       0.00000       0.00000
       0.00000       0.00000       0.00000
       0.00000       0.00000       0.00000
       0.00000       0.00000       0.00000
       0.00000       0.00000       0.00000
       0.00000       0.00000       0.00000
       0.00000       0.00000       0.00000
       0.00000       0.00000       0.00000
       0.00000       0.00000       0.00000
       0.00000       0.00000       0.00000
       0.00000       0.00000       0.00000
       0.00000       0.00000       0.00000
       0.00000       0.00000       0.00000
       0.00000       0.00000       0.00000
       0.00000       0.00000       0.00000
       0.00000       0.00000       0.00000
       0.00000       0.00000       0.00000
       0.00000       0.00000       0.00000
       0.00000       0.00000       0.00000
       0.00000       0.00000       0.00000
       0.00000       0.00000       0.00000
       0.00000       0.00000       0.00000
       0.00000       0.00000       0.00000
       0.00000       0.00000       0.00000
       0.00000       0.00000       0.00000
       0.00000       0.00000       0.00000
       0.00000       0.00000       0.00000
       0.00000       0.00000       0.00000
       0.00000       0.00000       0.00000
       0.00000       0.00000       0.00000
       0.00000       0.00000       0.00000
       0.00000       0.00000       0.00000
       0.00000       0.00000       0.00000
       0.00000       0.00000       0.00000
       0.00000       0.00000       0.00000
       0.00000       0.00000       0.00000
       0.00000       0.00000       0.00000
       0.00000       0.00000       0.00000
       0.00000       0.00000       0.00000
       0.00000       0.00000       0.00000
       0.00000       0.00000       0.00000
       0.00000       0.00000       0.00000
       0.00000       0.00000       0.00000
       0.00000       0.00000       0.00000
       0.00000       0.00000       0.00000
       0.00000       0.00000       0.00000
       0.00000       0.00000       0.00000
       0.00000       0.00000       0.00000
      -0.00029      -0.00030      -0.00032
       0.00094      -0.00002       0.00118
      -0.00030       0.00030      -0.00034
       0.00007       0.00000      -0.00033
       0.00000       0.00092       0.00131
       0.00005       0.00000      -0.02690
       0.00022      -0.00099       0.00126
       0.00002       0.00003      -0.00051
       0.00032      -0.00029      -0.00032
      -0.00093      -0.00004       0.00118
       0.00035       0.00030      -0.00034
      -0.00011       0.00002      -0.00033
       0.00001       0.00010      -0.00026
      -0.00002       0.00004      -0.00048
       0.00001      -0.00007      -0.00023
      -0.00001       0.00003      -0.00035
       0.00041       0.00030       1.45180
      -0.00001       0.00004      -1.20938
vibration 2
       0.00000       0.00000       0.00000
       0.00000       0.00000       0.00000
       0.00000       0.00000       0.00000
       0.00000       0.00000       0.00000
       0.00000       0.00000       0.00000
       0.00000       0.00000       0.00000
       0.00000       0.00000       0.00000
       0.00000       0.00000       0.00000
       0.00000       0.00000       0.00000
       0.00000       0.00000       0.00000
       0.00000       0.00000       0.00000
       0.00000       0.00000       0.00000
       0.00000       0.00000       0.00000
       0.00000       0.00000       0.00000
       0.00000       0.00000       0.00000
       0.00000       0.00000       0.00000
       0.00000       0.00000       0.00000
       0.00000       0.00000       0.00000
       0.00000       0.00000       0.00000
       0.00000       0.00000       0.00000
       0.00000       0.00000       0.00000
       0.00000       0.00000       0.00000
       0.00000       0.00000       0.00000
       0.00000       0.00000       0.00000
       0.00000       0.00000       0.00000
       0.00000       0.00000       0.00000
       0.00000       0.00000       0.00000
       0.00000       0.00000       0.00000
       0.00000       0.00000       0.00000
       0.00000       0.00000       0.00000
       0.00000       0.00000       0.00000
       0.00000       0.00000       0.00000
       0.00000       0.00000       0.00000
       0.00000       0.00000       0.00000
       0.00000       0.00000       0.00000
       0.00000       0.00000       0.00000
       0.00000       0.00000       0.00000
       0.00000       0.00000       0.00000
       0.00000       0.00000       0.00000
       0.00000       0.00000       0.00000
       0.00000       0.00000       0.00000
       0.00000       0.00000       0.00000
       0.00000       0.00000       0.00000
       0.00000       0.00000       0.00000
       0.00000       0.00000       0.00000
       0.00000       0.00000       0.00000
       0.00000       0.00000       0.00000
       0.00000       0.00000       0.00000
      -0.00157      -0.00113      -0.00395
       0.00291      -0.00016      -0.00112
      -0.00152       0.00109      -0.00437
       0.00118       0.00011      -0.00128
       0.00002       0.00237      -0.00089
      -0.00221      -0.00222      -1.07591
       0.00101      -0.00530      -0.00191
      -0.00009       0.00031      -0.00275
       0.00139      -0.00128      -0.00412
      -0.00405      -0.00045      -0.00081
       0.00120       0.00063      -0.00373
      -0.00117       0.00018      -0.00145
       0.00006       0.00104      -0.00189
      -0.00041       0.00009      -0.00320
      -0.00007      -0.00077      -0.00365
      -0.00025       0.00034      -0.00476
       0.00900       0.01775       0.98237
      -0.00035      -0.00226       1.20325
vibration 3
       0.00000       0.00000       0.00000
       0.00000       0.00000       0.00000
       0.00000       0.00000       0.00000
       0.00000       0.00000       0.00000
       0.00000       0.00000       0.00000
       0.00000       0.00000       0.00000
       0.00000       0.00000       0.00000
       0.00000       0.00000       0.00000
       0.00000       0.00000       0.00000
       0.00000       0.00000       0.00000
       0.00000       0.00000       0.00000
       0.00000       0.00000       0.00000
       0.00000       0.00000       0.00000
       0.00000       0.00000       0.00000
       0.00000       0.00000       0.00000
       0.00000       0.00000       0.00000
       0.00000       0.00000       0.00000
       0.00000       0.00000       0.00000
       0.00000       0.00000       0.00000
       0.00000       0.00000       0.00000
       0.00000       0.00000       0.00000
       0.00000       0.00000       0.00000
       0.00000       0.00000       0.00000
       0.00000       0.00000       0.00000
       0.00000       0.00000       0.00000
       0.00000       0.00000       0.00000
       0.00000       0.00000       0.00000
       0.00000       0.00000       0.00000
       0.00000       0.00000       0.00000
       0.00000       0.00000       0.00000
       0.00000       0.00000       0.00000
       0.00000       0.00000       0.00000
       0.00000       0.00000       0.00000
       0.00000       0.00000       0.00000
       0.00000       0.00000       0.00000
       0.00000       0.00000       0.00000
       0.00000       0.00000       0.00000
       0.00000       0.00000       0.00000
       0.00000       0.00000       0.00000
       0.00000       0.00000       0.00000
       0.00000       0.00000       0.00000
       0.00000       0.00000       0.00000
       0.00000       0.00000       0.00000
       0.00000       0.00000       0.00000
       0.00000       0.00000       0.00000
       0.00000       0.00000       0.00000
       0.00000       0.00000       0.00000
       0.00000       0.00000       0.00000
       0.00312       0.01194       0.00065
      -0.05785      -0.05139       0.01261
      -0.03734       0.03889      -0.01790
      -0.00140      -0.00089       0.00327
       0.03852       0.08635      -0.00910
      -0.05815       0.04645      -0.00997
       0.03804       0.08278       0.00682
      -0.00446      -0.01151       0.00155
      -0.03870       0.04009       0.01451
      -0.05976      -0.05094      -0.01347
       0.00228       0.01085      -0.00368
      -0.00012      -0.00096      -0.00638
       0.00039       0.00014      -0.00841
       0.00915       0.00739      -0.00214
       0.00025       0.00157       0.00486
       0.00828      -0.01357       0.00842
       1.10886      -1.26247       0.00110
      -0.56155       0.62389       0.00162
vibration 4
       0.00000       0.00000       0.00000
       0.00000       0.00000       0.00000
       0.00000       0.00000       0.00000
       0.00000       0.00000       0.00000
       0.00000       0.00000       0.00000
       0.00000       0.00000       0.00000
       0.00000       0.00000       0.00000
       0.00000       0.00000       0.00000
       0.00000       0.00000       0.00000
       0.00000       0.00000       0.00000
       0.00000       0.00000       0.00000
       0.00000       0.00000       0.00000
       0.00000       0.00000       0.00000
       0.00000       0.00000       0.00000
       0.00000       0.00000       0.00000
       0.00000       0.00000       0.00000
       0.00000       0.00000       0.00000
       0.00000       0.00000       0.00000
       0.00000       0.00000       0.00000
       0.00000       0.00000       0.00000
       0.00000       0.00000       0.00000
       0.00000       0.00000       0.00000
       0.00000       0.00000       0.00000
       0.00000       0.00000       0.00000
       0.00000       0.00000       0.00000
       0.00000       0.00000       0.00000
       0.00000       0.00000       0.00000
       0.00000       0.00000       0.00000
       0.00000       0.00000       0.00000
       0.00000       0.00000       0.00000
       0.00000       0.00000       0.00000
       0.00000       0.00000       0.00000
       0.00000       0.00000       0.00000
       0.00000       0.00000       0.00000
       0.00000       0.00000       0.00000
       0.00000       0.00000       0.00000
       0.00000       0.00000       0.00000
       0.00000       0.00000       0.00000
       0.00000       0.00000       0.00000
       0.00000       0.00000       0.00000
       0.00000       0.00000       0.00000
       0.00000       0.00000       0.00000
       0.00000       0.00000       0.00000
       0.00000       0.00000       0.00000
       0.00000       0.00000       0.00000
       0.00000       0.00000       0.00000
       0.00000       0.00000       0.00000
       0.00000       0.00000       0.00000
      -0.04445      -0.04293      -0.01988
      -0.08694       0.04554       0.00658
      -0.00728      -0.00381      -0.00220
      -0.00160       0.00124       0.00502
       0.05162      -0.07846       0.00504
      -0.05301      -0.04624       0.02571
       0.05116      -0.07610      -0.00880
      -0.00691       0.01194      -0.00199
      -0.00665      -0.00441       0.00024
      -0.08513       0.04610      -0.00778
      -0.04355      -0.04245       0.01787
      -0.00006       0.00152      -0.00842
       0.00179      -0.00216       0.00448
       0.01519      -0.00757      -0.00184
       0.00192      -0.00042      -0.00753
       0.01291       0.01291       0.01079
       1.25178       1.10487      -0.00225
      -0.64439      -0.56265      -0.00259
vibration 5
       0.00000       0.00000       0.00000
       0.00000       0.00000       0.00000
       0.00000       0.00000       0.00000
       0.00000       0.00000       0.00000
       0.00000       0.00000       0.00000
       0.00000       0.00000       0.00000
       0.00000       0.00000       0.00000
       0.00000       0.00000       0.00000
       0.00000       0.00000       0.00000
       0.00000       0.00000       0.00000
       0.00000       0.00000       0.00000
       0.00000       0.00000       0.00000
       0.00000       0.00000       0.00000
       0.00000       0.00000       0.00000
       0.00000       0.00000       0.00000
       0.00000       0.00000       0.00000
       0.00000       0.00000       0.00000
       0.00000       0.00000       0.00000
       0.00000       0.00000       0.00000
       0.00000       0.00000       0.00000
       0.00000       0.00000       0.00000
       0.00000       0.00000       0.00000
       0.00000       0.00000       0.00000
       0.00000       0.00000       0.00000
       0.00000       0.00000       0.00000
       0.00000       0.00000       0.00000
       0.00000       0.00000       0.00000
       0.00000       0.00000       0.00000
       0.00000       0.00000       0.00000
       0.00000       0.00000       0.00000
       0.00000       0.00000       0.00000
       0.00000       0.00000       0.00000
       0.00000       0.00000       0.00000
       0.00000       0.00000       0.00000
       0.00000       0.00000       0.00000
       0.00000       0.00000       0.00000
       0.00000       0.00000       0.00000
       0.00000       0.00000       0.00000
       0.00000       0.00000       0.00000
       0.00000       0.00000       0.00000
       0.00000       0.00000       0.00000
       0.00000       0.00000       0.00000
       0.00000       0.00000       0.00000
       0.00000       0.00000       0.00000
       0.00000       0.00000       0.00000
       0.00000       0.00000       0.00000
       0.00000       0.00000       0.00000
       0.00000       0.00000       0.00000
       0.06774       0.25957      -0.00186
      -0.33222      -0.26893      -0.03315
       0.07192       0.26257      -0.00332
      -0.08562      -0.25752      -0.00392
      -0.07198      -0.77578      -0.07057
       0.26759       0.61882       0.00318
      -0.07971      -0.77186       0.06672
       0.09573       0.81180       0.00644
       0.06170       0.27122      -0.00061
      -0.32728      -0.27641       0.03148
       0.07865       0.26695      -0.00229
      -0.08461      -0.26478      -0.00362
      -0.06225      -0.25630      -0.00417
       0.35686       0.26807       0.00334
      -0.07396      -0.25355       0.00151
       0.08267       0.24622      -0.00008
      -0.01029      -0.02790       0.00149
       0.02133       0.04694       0.00178
vibration 6
       0.00000       0.00000       0.00000
       0.00000       0.00000       0.00000
       0.00000       0.00000       0.00000
       0.00000       0.00000       0.00000
       0.00000       0.00000       0.00000
       0.00000       0.00000       0.00000
       0.00000       0.00000       0.00000
       0.00000       0.00000       0.00000
       0.00000       0.00000       0.00000
       0.00000       0.00000       0.00000
       0.00000       0.00000       0.00000
       0.00000       0.00000       0.00000
       0.00000       0.00000       0.00000
       0.00000       0.00000       0.00000
       0.00000       0.00000       0.00000
       0.00000       0.00000       0.00000
       0.00000       0.00000       0.00000
       0.00000       0.00000       0.00000
       0.00000       0.00000       0.00000
       0.00000       0.00000       0.00000
       0.00000       0.00000       0.00000
       0.00000       0.00000       0.00000
       0.00000       0.00000       0.00000
       0.00000       0.00000       0.00000
       0.00000       0.00000       0.00000
       0.00000       0.00000       0.00000
       0.00000       0.00000       0.00000
       0.00000       0.00000       0.00000
       0.00000       0.00000       0.00000
       0.00000       0.00000       0.00000
       0.00000       0.00000       0.00000
       0.00000       0.00000       0.00000
       0.00000       0.00000       0.00000
       0.00000       0.00000       0.00000
       0.00000       0.00000       0.00000
       0.00000       0.00000       0.00000
       0.00000       0.00000       0.00000
       0.00000       0.00000       0.00000
       0.00000       0.00000       0.00000
       0.00000       0.00000       0.00000
       0.00000       0.00000       0.00000
       0.00000       0.00000       0.00000
       0.00000       0.00000       0.00000
       0.00000       0.00000       0.00000
       0.00000       0.00000       0.00000
       0.00000       0.00000       0.00000
       0.00000       0.00000       0.00000
       0.00000       0.00000       0.00000
       0.22250      -0.12057      -0.01083
      -0.83842       0.12598      -0.08677
       0.19774      -0.12973       0.00095
      -0.13933       0.12615      -0.00519
      -0.21952       0.29190       0.02349
       0.66991      -0.23266      -0.00130
      -0.19721       0.28726      -0.03187
       0.13762      -0.29212       0.01718
       0.22155      -0.13065      -0.00451
      -0.83845       0.13068       0.07697
       0.19905      -0.12214       0.00041
      -0.13775       0.12604       0.00161
      -0.21836       0.11570       0.00277
       0.88361      -0.11685       0.00628
      -0.19701       0.11639      -0.00574
       0.14070      -0.11403       0.00107
      -0.02325      -0.00462       0.00021
       0.05031      -0.00435       0.00020
vibration 7
       0.00000       0.00000       0.00000
       0.00000       0.00000       0.00000
       0.00000       0.00000       0.00000
       0.00000       0.00000       0.00000
       0.00000       0.00000       0.00000
       0.00000       0.00000       0.00000
       0.00000       0.00000       0.00000
       0.00000       0.00000       0.00000
       0.00000       0.00000       0.00000
       0.00000       0.00000       0.00000
       0.00000       0.00000       0.00000
       0.00000       0.00000       0.00000
       0.00000       0.00000       0.00000
       0.00000       0.00000       0.00000
       0.00000       0.00000       0.00000
       0.00000       0.00000       0.00000
       0.00000       0.00000       0.00000
       0.00000       0.00000       0.00000
       0.00000       0.00000       0.00000
       0.00000       0.00000       0.00000
       0.00000       0.00000       0.00000
       0.00000       0.00000       0.00000
       0.00000       0.00000       0.00000
       0.00000       0.00000       0.00000
       0.00000       0.00000       0.00000
       0.00000       0.00000       0.00000
       0.00000       0.00000       0.00000
       0.00000       0.00000       0.00000
       0.00000       0.00000       0.00000
       0.00000       0.00000       0.00000
       0.00000       0.00000       0.00000
       0.00000       0.00000       0.00000
       0.00000       0.00000       0.00000
       0.00000       0.00000       0.00000
       0.00000       0.00000       0.00000
       0.00000       0.00000       0.00000
       0.00000       0.00000       0.00000
       0.00000       0.00000       0.00000
       0.00000       0.00000       0.00000
       0.00000       0.00000       0.00000
       0.00000       0.00000       0.00000
       0.00000       0.00000       0.00000
       0.00000       0.00000       0.00000
       0.00000       0.00000       0.00000
       0.00000       0.00000       0.00000
       0.00000       0.00000       0.00000
       0.00000       0.00000       0.00000
       0.00000       0.00000       0.00000
       0.05690       0.19322       0.00852
       0.08457      -0.17231       0.00950
       0.18676       0.20931      -0.00176
      -0.28381      -0.22674      -0.00078
      -0.05577       0.44217       0.04964
      -0.07006      -0.35518       0.00042
      -0.16176       0.43608      -0.04961
       0.28768      -0.45860       0.00126
       0.07961       0.30371       0.00278
       0.07988      -0.26183      -0.01188
       0.16223       0.28599      -0.01897
      -0.28754      -0.32317      -0.00355
      -0.07657      -0.67746       0.00231
      -0.08977       0.66498       0.00210
      -0.18416      -0.67802      -0.00361
       0.29353       0.68337       0.00285
       0.01491       0.05494      -0.00001
      -0.01772      -0.06414      -0.00002
vibration 8
       0.00000       0.00000       0.00000
       0.00000       0.00000       0.00000
       0.00000       0.00000       0.00000
       0.00000       0.00000       0.00000
       0.00000       0.00000       0.00000
       0.00000       0.00000       0.00000
       0.00000       0.00000       0.00000
       0.00000       0.00000       0.00000
       0.00000       0.00000       0.00000
       0.00000       0.00000       0.00000
       0.00000       0.00000       0.00000
       0.00000       0.00000       0.00000
       0.00000       0.00000       0.00000
       0.00000       0.00000       0.00000
       0.00000       0.00000       0.00000
       0.00000       0.00000       0.00000
       0.00000       0.00000       0.00000
       0.00000       0.00000       0.00000
       0.00000       0.00000       0.00000
       0.00000       0.00000       0.00000
       0.00000       0.00000       0.00000
       0.00000       0.00000       0.00000
       0.00000       0.00000       0.00000
       0.00000       0.00000       0.00000
       0.00000       0.00000       0.00000
       0.00000       0.00000       0.00000
       0.00000       0.00000       0.00000
       0.00000       0.00000       0.00000
       0.00000       0.00000       0.00000
       0.00000       0.00000       0.00000
       0.00000       0.00000       0.00000
       0.00000       0.00000       0.00000
       0.00000       0.00000       0.00000
       0.00000       0.00000       0.00000
       0.00000       0.00000       0.00000
       0.00000       0.00000       0.00000
       0.00000       0.00000       0.00000
       0.00000       0.00000       0.00000
       0.00000       0.00000       0.00000
       0.00000       0.00000       0.00000
       0.00000       0.00000       0.00000
       0.00000       0.00000       0.00000
       0.00000       0.00000       0.00000
       0.00000       0.00000       0.00000
       0.00000       0.00000       0.00000
       0.00000       0.00000       0.00000
       0.00000       0.00000       0.00000
       0.00000       0.00000       0.00000
      -0.41029      -0.50891      -0.01975
       0.01269       0.49990       0.00875
       0.45958      -0.50438       0.01482
       0.02037       0.51705       0.00834
       0.40221      -0.02036       0.00194
      -0.00154       0.02982      -0.00175
      -0.46035      -0.05027       0.00622
      -0.01271       0.03408      -0.00519
      -0.40898       0.48594       0.02105
      -0.00071      -0.48337      -0.00554
       0.46830       0.49081      -0.02198
       0.00738      -0.49246      -0.00681
       0.41211       0.12478       0.00014
      -0.00870      -0.11168      -0.00471
      -0.46655       0.10151      -0.00138
      -0.01609      -0.11643       0.00046
       0.00332      -0.00204      -0.00062
      -0.00307       0.00297      -0.00071
vibration 9
       0.00000       0.00000       0.00000
       0.00000       0.00000       0.00000
       0.00000       0.00000       0.00000
       0.00000       0.00000       0.00000
       0.00000       0.00000       0.00000
       0.00000       0.00000       0.00000
       0.00000       0.00000       0.00000
       0.00000       0.00000       0.00000
       0.00000       0.00000       0.00000
       0.00000       0.00000       0.00000
       0.00000       0.00000       0.00000
       0.00000       0.00000       0.00000
       0.00000       0.00000       0.00000
       0.00000       0.00000       0.00000
       0.00000       0.00000       0.00000
       0.00000       0.00000       0.00000
       0.00000       0.00000       0.00000
       0.00000       0.00000       0.00000
       0.00000       0.00000       0.00000
       0.00000       0.00000       0.00000
       0.00000       0.00000       0.00000
       0.00000       0.00000       0.00000
       0.00000       0.00000       0.00000
       0.00000       0.00000       0.00000
       0.00000       0.00000       0.00000
       0.00000       0.00000       0.00000
       0.00000       0.00000       0.00000
       0.00000       0.00000       0.00000
       0.00000       0.00000       0.00000
       0.00000       0.00000       0.00000
       0.00000       0.00000       0.00000
       0.00000       0.00000       0.00000
       0.00000       0.00000       0.00000
       0.00000       0.00000       0.00000
       0.00000       0.00000       0.00000
       0.00000       0.00000       0.00000
       0.00000       0.00000       0.00000
       0.00000       0.00000       0.00000
       0.00000       0.00000       0.00000
       0.00000       0.00000       0.00000
       0.00000       0.00000       0.00000
       0.00000       0.00000       0.00000
       0.00000       0.00000       0.00000
       0.00000       0.00000       0.00000
       0.00000       0.00000       0.00000
       0.00000       0.00000       0.00000
       0.00000       0.00000       0.00000
       0.00000       0.00000       0.00000
       0.44668      -0.12027       0.00914
       0.33389       0.09058       0.03242
       0.38012      -0.10131       0.02336
      -0.57014       0.12429      -0.01306
      -0.42456      -0.17154      -0.02167
      -0.26217       0.14078      -0.00171
      -0.37234      -0.17041       0.02826
       0.57630       0.17777      -0.00459
       0.43958      -0.15077      -0.01075
       0.33430       0.14297      -0.05418
       0.38919      -0.17416      -0.01161
      -0.56564       0.17266      -0.01309
      -0.45538       0.22374      -0.01086
      -0.35811      -0.20848       0.00509
      -0.39833       0.21878      -0.01837
       0.57599      -0.22372       0.00869
       0.05540      -0.01546      -0.00078
      -0.06740       0.01946      -0.00092
vibration 10
       0.00000       0.00000       0.00000
       0.00000       0.00000       0.00000
       0.00000       0.00000       0.00000
       0.00000       0.00000       0.00000
       0.00000       0.00000       0.00000
       0.00000       0.00000       0.00000
       0.00000       0.00000       0.00000
       0.00000       0.00000       0.00000
       0.00000       0.00000       0.00000
       0.00000       0.00000       0.00000
       0.00000       0.00000       0.00000
       0.00000       0.00000       0.00000
       0.00000       0.00000       0.00000
       0.00000       0.00000       0.00000
       0.00000       0.00000       0.00000