 vasp.5.4.4.18Apr17-6-g9f103f2a35 (build Apr 07 2018 02:38:49) complex          
  
 executed on             LinuxIFC date 2018.06.25  14:27:59
 running on   16 total cores
 distrk:  each k-point on   16 cores,    1 groups
 distr:  one band on NCORES_PER_BAND=   4 cores,    4 groups


--------------------------------------------------------------------------------------------------------


 INCAR:
 POTCAR:   PAW_PBE Mn 06Sep2000                   
 POTCAR:   PAW_PBE O 08Apr2002                    
 POTCAR:   PAW_PBE Mn 06Sep2000                   
  local pseudopotential read in
  partial core-charges read in
  atomic valenz-charges read in
  non local Contribution for L=           2  read in
    real space projection operators read in
  non local Contribution for L=           2  read in
    real space projection operators read in
  non local Contribution for L=           0  read in
    real space projection operators read in
  non local Contribution for L=           0  read in
    real space projection operators read in
  non local Contribution for L=           1  read in
    real space projection operators read in
  non local Contribution for L=           1  read in
    real space projection operators read in
    PAW grid and wavefunctions read in
 
   number of l-projection  operators is LMAX  =           6
   number of lm-projection operators is LMMAX =          18
 
 POTCAR:   PAW_PBE O 08Apr2002                    
  local pseudopotential read in
  atomic valenz-charges read in
  non local Contribution for L=           0  read in
    real space projection operators read in
  non local Contribution for L=           0  read in
    real space projection operators read in
  non local Contribution for L=           1  read in
    real space projection operators read in
  non local Contribution for L=           1  read in
    real space projection operators read in
    PAW grid and wavefunctions read in
 
   number of l-projection  operators is LMAX  =           4
   number of lm-projection operators is LMMAX =           8
 

 ----------------------------------------------------------------------------- 
|                                                                             |
|  ADVICE TO THIS USER RUNNING 'VASP/VAMP'   (HEAR YOUR MASTER'S VOICE ...):  |
|                                                                             |
|      You have a (more or less) 'large supercell' and for larger cells       |
|      it might be more efficient to use real space projection operators      |
|      So try LREAL= Auto  in the INCAR   file.                               |
|      Mind: If you want to do a very accurate calculations keep the          |
|      reciprocal projection scheme          (i.e. LREAL=.FALSE.)             |
|                                                                             |
 ----------------------------------------------------------------------------- 

 PAW_PBE Mn 06Sep2000                   :
 energy of atom  1       EATOM= -416.8732
 kinetic energy error for atom=    0.0024 (will be added to EATOM!!)
 PAW_PBE O 08Apr2002                    :
 energy of atom  2       EATOM= -432.3788
 kinetic energy error for atom=    0.0224 (will be added to EATOM!!)
 
 
 POSCAR: Mn3O4_mp-18759_conventional_standard\(1\
  positions in direct lattice
  No initial velocities read in
 exchange correlation table for  LEXCH =        8
   RHO(1)=    0.500       N(1)  =     2000
   RHO(2)=  100.500       N(2)  =     4000

 VTST: version 3.1, (03/28/14)

 CHAIN: initializing optimizer
 
 OPT: Using VASP Conjugate-Gradient optimizer
 CHAIN: Read ICHAIN            0
 
 POSCAR: Mn3O4_mp-18759_conventional_standard\(1\
  positions in direct lattice
  No initial velocities read in
 


--------------------------------------------------------------------------------------------------------


 ion  position               nearest neighbor table
   1  0.384  0.430  0.204-  23 2.07  48 2.07  38 2.07  34 2.07
   2  0.566  0.930  0.143-  33 2.07  39 2.07  41 2.07  30 2.07
   3  0.839  0.930  0.387-  31 2.07  40 2.07  42 2.07
   4  0.338  0.180  0.052-  30 1.96  32 1.96  23 1.96  28 2.33  10 2.94  10 2.94  19 3.17  17 3.17
                             6 3.17
   5  0.611  0.180  0.295-  34 1.96  33 1.96  24 1.96  31 1.96  29 2.33  25 2.33  11 2.94  11 2.94
                             8 3.17  20 3.17  18 3.17   7 3.17
   6  0.588  0.430  0.052-  39 1.96  41 1.96  45 2.33  23 2.33   8 2.94   4 3.17  21 3.17  15 3.17
                            10 3.17
   7  0.861  0.430  0.295-  25 1.96  35 1.96  40 1.96  42 1.96  46 2.33  24 2.33   8 2.94   9 2.94
                             5 3.17  22 3.17  16 3.17  11 3.17
   8  0.725  0.430  0.174-  39 1.96  41 1.96  25 1.96  35 1.96  34 2.33  43 2.33   6 2.94   7 2.94
                             5 3.17  11 3.17  21 3.17  15 3.17
   9  0.998  0.430  0.417-  40 1.96  42 1.96  44 2.33   7 2.94  22 3.17  16 3.17
  10  0.338  0.680  0.052-  30 1.96  32 1.96  23 1.96  26 2.33   4 2.94   4 2.94  19 3.17  17 3.17
                             6 3.17
  11  0.611  0.680  0.295-  34 1.96  33 1.96  24 1.96  31 1.96  27 2.33  35 2.33   5 2.94   5 2.94
                             8 3.17  20 3.17  18 3.17   7 3.17
  12  0.884  0.930  0.204-  36 2.07  25 2.07  35 2.07  47 2.07
  13  0.066  0.430  0.143-  46 2.07  28 2.07  26 2.07  43 2.07
  14  0.339  0.430  0.387-  44 2.07  29 2.07  27 2.07
  15  0.838  0.680  0.052-  43 1.96  36 1.96  45 1.96  41 2.33  21 2.94  21 2.94   8 3.17  17 3.17
                             6 3.17
  16  0.111  0.680  0.295-  47 1.96  46 1.96  37 1.96  44 1.96  42 2.33  38 2.33  22 2.94  22 2.94
                            19 3.17   9 3.17  18 3.17   7 3.17
  17  0.088  0.930  0.052-  28 1.96  26 1.96  32 2.33  36 2.33  19 2.94  21 3.17  15 3.17   4 3.17
                            10 3.17
  18  0.361  0.930  0.295-  48 1.96  38 1.96  29 1.96  27 1.96  37 2.33  33 2.33  19 2.94  20 2.94
                             5 3.17  22 3.17  16 3.17  11 3.17
  19  0.225  0.930  0.174-  28 1.96  48 1.96  26 1.96  38 1.96  47 2.33  30 2.33  18 2.94  17 2.94
                            22 3.17   4 3.17  16 3.17  10 3.17
  20  0.498  0.930  0.417-  29 1.96  27 1.96  31 2.33  18 2.94   5 3.17  11 3.17
  21  0.838  0.180  0.052-  43 1.96  36 1.96  45 1.96  39 2.33  15 2.94  15 2.94   8 3.17  17 3.17
                             6 3.17
  22  0.111  0.180  0.295-  47 1.96  46 1.96  37 1.96  44 1.96  40 2.33  48 2.33  16 2.94  16 2.94
                            19 3.17   9 3.17  18 3.17   7 3.17
  23  0.404  0.430  0.104-   4 1.96  10 1.96   1 2.07   6 2.33
  24  0.677  0.430  0.347-   5 1.96  11 1.96   7 2.33
  25  0.787  0.209  0.236-   7 1.96   8 1.96  12 2.07   5 2.33
  26  0.162  0.709  0.111-  17 1.96  19 1.96  13 2.07  10 2.33
  27  0.435  0.709  0.354-  20 1.96  18 1.96  14 2.07  11 2.33
  28  0.162  0.151  0.111-  17 1.96  19 1.96  13 2.07   4 2.33
  29  0.435  0.151  0.354-  20 1.96  18 1.96  14 2.07   5 2.33
  30  0.393  0.930  0.108-   4 1.96  10 1.96   2 2.07  19 2.33
  31  0.666  0.930  0.351-   5 1.96  11 1.96   3 2.07  20 2.33
  32  0.272  0.930  0.000-   4 1.96  10 1.96  17 2.33
  33  0.545  0.930  0.243-   5 1.96  11 1.96   2 2.07  18 2.33
  34  0.556  0.430  0.240-   5 1.96  11 1.96   1 2.07   8 2.33
  35  0.787  0.651  0.236-   7 1.96   8 1.96  12 2.07  11 2.33
  36  0.904  0.930  0.104-  21 1.96  15 1.96  12 2.07  17 2.33
  37  0.177  0.930  0.347-  22 1.96  16 1.96  18 2.33
  38  0.287  0.709  0.236-  18 1.96  19 1.96   1 2.07  16 2.33
  39  0.662  0.209  0.111-   6 1.96   8 1.96   2 2.07  21 2.33
  40  0.935  0.209  0.354-   9 1.96   7 1.96   3 2.07  22 2.33
  41  0.662  0.651  0.111-   6 1.96   8 1.96   2 2.07  15 2.33
  42  0.935  0.651  0.354-   9 1.96   7 1.96   3 2.07  16 2.33
  43  0.893  0.430  0.108-  21 1.96  15 1.96  13 2.07   8 2.33
  44  0.166  0.430  0.351-  22 1.96  16 1.96  14 2.07   9 2.33
  45  0.772  0.430  0.000-  21 1.96  15 1.96   6 2.33
  46  0.045  0.430  0.243-  22 1.96  16 1.96  13 2.07   7 2.33
  47  0.056  0.930  0.240-  22 1.96  16 1.96  12 2.07  19 2.33
  48  0.287  0.151  0.236-  18 1.96  19 1.96   1 2.07  22 2.33
 
  LATTYP: Found a simple orthorhombic cell.
 ALAT       =     5.8751997948
 B/A-ratio  =     1.9137561990
 C/A-ratio  =     3.5034893959
  
  Lattice vectors:
  
 A1 = (   0.0000000000,  -5.8751997948,   0.0000000000)
 A2 = ( -11.2437000275,   0.0000000000,   0.0000000000)
 A3 = (   0.0000000000,   0.0000000000, -20.5837001801)


Analysis of symmetry for initial positions (statically):
=====================================================================
 Subroutine PRICEL returns following result:
 
  LATTYP: Found a base centered orthorhombic cell.
 ALAT       =     5.8751997948
 B/A-ratio  =     1.9137561990
 C/A-ratio  =     3.5034893959
  
  Lattice vectors:
  
 A1 = (   5.6218500137,  -2.9376000737,   0.0000000000)
 A2 = (  -5.6218500137,  -2.9375997211,   0.0000000000)
 A3 = (   0.0000000000,   0.0000000000, -20.5837001801)
 
   2 primitive cells build up your supercell.
 

 Routine SETGRP: Setting up the symmetry group for a 
 simple orthorhombic supercell.


 Subroutine GETGRP returns: Found  2 space group operations
 (whereof  1 operations were pure point group operations)
 out of a pool of  8 trial point group operations.


The static configuration has the point symmetry C_1 .
 The point group associated with its full space group is C_1h.


Analysis of symmetry for dynamics (positions and initial velocities):
=====================================================================
 Subroutine PRICEL returns following result:
 
  LATTYP: Found a base centered orthorhombic cell.
 ALAT       =     5.8751997948
 B/A-ratio  =     1.9137561990
 C/A-ratio  =     3.5034893959
  
  Lattice vectors:
  
 A1 = (   5.6218500137,  -2.9376000737,   0.0000000000)
 A2 = (  -5.6218500137,  -2.9375997211,   0.0000000000)
 A3 = (   0.0000000000,   0.0000000000, -20.5837001801)
 
   2 primitive cells build up your supercell.
 

 Routine SETGRP: Setting up the symmetry group for a 
 simple orthorhombic supercell.


 Subroutine GETGRP returns: Found  2 space group operations
 (whereof  1 operations were pure point group operations)
 out of a pool of  8 trial point group operations.


The dynamic configuration has the point symmetry C_1 .
 The point group associated with its full space group is C_1h.


Analysis of structural, dynamic, and magnetic symmetry:
=====================================================================
 Subroutine PRICEL returns following result:
 
  LATTYP: Found a base centered orthorhombic cell.
 ALAT       =     5.8751997948
 B/A-ratio  =     1.9137561990
 C/A-ratio  =     3.5034893959
  
  Lattice vectors:
  
 A1 = (   5.6218500137,  -2.9376000737,   0.0000000000)
 A2 = (  -5.6218500137,  -2.9375997211,   0.0000000000)
 A3 = (   0.0000000000,   0.0000000000, -20.5837001801)
 
   2 primitive cells build up your supercell.
 

 Routine SETGRP: Setting up the symmetry group for a 
 simple orthorhombic supercell.


 Subroutine GETGRP returns: Found  2 space group operations
 (whereof  1 operations were pure point group operations)
 out of a pool of  8 trial point group operations.


The magnetic configuration has the point symmetry C_1 .
 The point group associated with its full space group is C_1h.


 Subroutine INISYM returns: Found  2 space group operations
 (whereof  1 operations are pure point group operations),
 and found     2 'primitive' translations

 
 
 KPOINTS: K-POINTS                                

Automatic generation of k-mesh.
Space group operators:
 irot       det(A)        alpha          n_x          n_y          n_z        tau_x        tau_y        tau_z
    1     1.000000     0.000000     1.000000     0.000000     0.000000     0.000000     0.000000     0.000000
    2    -1.000000   180.000000     0.000000     1.000000     0.000000     0.000000    -0.140240     0.000000
 
 Subroutine IBZKPT returns following result:
 ===========================================
 
 Found     16 irreducible k-points:
 
 Following reciprocal coordinates:
            Coordinates               Weight
  0.000000  0.000000  0.000000      1.000000
  0.166667  0.000000  0.000000      2.000000
  0.333333  0.000000  0.000000      2.000000
  0.500000  0.000000  0.000000      1.000000
  0.000000  0.166667  0.000000      2.000000
  0.166667  0.166667  0.000000      4.000000
  0.333333  0.166667  0.000000      4.000000
  0.500000  0.166667  0.000000      2.000000
  0.000000  0.333333  0.000000      2.000000
  0.166667  0.333333  0.000000      4.000000
  0.333333  0.333333  0.000000      4.000000
  0.500000  0.333333  0.000000      2.000000
  0.000000  0.500000  0.000000      1.000000
  0.166667  0.500000  0.000000      2.000000
  0.333333  0.500000  0.000000      2.000000
  0.500000  0.500000  0.000000      1.000000
 
 Following cartesian coordinates:
            Coordinates               Weight
  0.000000  0.000000  0.000000      1.000000
  0.014823  0.000000  0.000000      2.000000
  0.029646  0.000000  0.000000      2.000000
  0.044469  0.000000  0.000000      1.000000
  0.000000  0.028368  0.000000      2.000000
  0.014823  0.028368  0.000000      4.000000
  0.029646  0.028368  0.000000      4.000000
  0.044469  0.028368  0.000000      2.000000
  0.000000  0.056736  0.000000      2.000000
  0.014823  0.056736  0.000000      4.000000
  0.029646  0.056736  0.000000      4.000000
  0.044469  0.056736  0.000000      2.000000
  0.000000  0.085103  0.000000      1.000000
  0.014823  0.085103  0.000000      2.000000
  0.029646  0.085103  0.000000      2.000000
  0.044469  0.085103  0.000000      1.000000
 


--------------------------------------------------------------------------------------------------------




 Dimension of arrays:
   k-points           NKPTS =     16   k-points in BZ     NKDIM =     16   number of bands    NBANDS=    224
   number of dos      NEDOS =    301   number of ions     NIONS =     48
   non local maximal  LDIM  =      6   non local SUM 2l+1 LMDIM =     18
   total plane-waves  NPLWV = 245760
   max r-space proj   IRMAX =      1   max aug-charges    IRDMAX=   6844
   dimension x,y,z NGX =    64 NGY =   32 NGZ =  120
   dimension x,y,z NGXF=   128 NGYF=   64 NGZF=  240
   support grid    NGXF=   128 NGYF=   64 NGZF=  240
   ions per type =              22  26
   NGX,Y,Z   is equivalent  to a cutoff of   9.46,  9.05,  9.69 a.u.
   NGXF,Y,Z  is equivalent  to a cutoff of  18.93, 18.11, 19.38 a.u.

 SYSTEM =  Mn3O4(101)                              
 POSCAR =  Mn3O4_mp-18759_conventional_standard\(1\

 Startparameter for this run:
   NWRITE =      0    write-flag & timer
   PREC   = n         normal or accurate (medium, high low for compatibility)
   ISTART =      0    job   : 0-new  1-cont  2-samecut
   ICHARG =      2    charge: 1-file 2-atom 10-const
   ISPIN  =      2    spin polarized calculation?
   LNONCOLLINEAR =      F non collinear calculations
   LSORBIT =      F    spin-orbit coupling
   INIWAV =      1    electr: 0-lowe 1-rand  2-diag
   LASPH  =      F    aspherical Exc in radial PAW
   METAGGA=      F    non-selfconsistent MetaGGA calc.

 Electronic Relaxation 1
   ENCUT  =  500.0 eV  36.75 Ry    6.06 a.u.  20.50 10.71 37.53*2*pi/ulx,y,z
   ENINI  =  500.0     initial cutoff
   ENAUG  =  605.4 eV  augmentation charge cutoff
   NELM   =    500;   NELMIN=  2; NELMDL=  0     # of ELM steps 
   EDIFF  = 0.1E-04   stopping-criterion for ELM
   LREAL  =      F    real-space projection
   NLSPLINE    = F    spline interpolate recip. space projectors
   LCOMPAT=      F    compatible to vasp.4.4
   GGA_COMPAT  = T    GGA compatible to vasp.4.4-vasp.4.6
   LMAXPAW     = -100 max onsite density
   LMAXMIX     =    2 max onsite mixed and CHGCAR
   VOSKOWN=      0    Vosko Wilk Nusair interpolation
   ROPT   =    0.00000   0.00000
 Ionic relaxation
   EDIFFG = -.1E-01   stopping-criterion for IOM
   NSW    =    500    number of steps for IOM
   NBLOCK =      1;   KBLOCK =    500    inner block; outer block 
   IBRION =      2    ionic relax: 0-MD 1-quasi-New 2-CG
   NFREE  =      1    steps in history (QN), initial steepest desc. (CG)
   ISIF   =      2    stress and relaxation
   IWAVPR =     11    prediction:  0-non 1-charg 2-wave 3-comb
   ISYM   =      2    0-nonsym 1-usesym 2-fastsym
   LCORR  =      T    Harris-Foulkes like correction to forces

   POTIM  = 0.1000    time-step for ionic-motion
   TEIN   =    0.0    initial temperature
   TEBEG  =    0.0;   TEEND  =   0.0 temperature during run
   SMASS  =  -3.00    Nose mass-parameter (am)
   estimated Nose-frequenzy (Omega)   =  0.10E-29 period in steps =****** mass=  -0.289E-26a.u.
   SCALEE = 1.0000    scale energy and forces
   NPACO  =    256;   APACO  = 16.0  distance and # of slots for P.C.
   PSTRESS=    0.0 pullay stress

  Mass of Ions in am
   POMASS =  54.94 16.00
  Ionic Valenz
   ZVAL   =   7.00  6.00
  Atomic Wigner-Seitz radii
   RWIGS  =  -1.00 -1.00
  virtual crystal weights 
   VCA    =   1.00  1.00
   NELECT =     310.0000    total number of electrons
   NUPDOWN=      -1.0000    fix difference up-down

 DOS related values:
   EMIN   =  10.00;   EMAX   =-10.00  energy-range for DOS
   EFERMI =   0.00
   ISMEAR =     1;   SIGMA  =   0.10  broadening in eV -4-tet -1-fermi 0-gaus

 Electronic relaxation 2 (details)
   IALGO  =     68    algorithm
   LDIAG  =      T    sub-space diagonalisation (order eigenvalues)
   LSUBROT=      F    optimize rotation matrix (better conditioning)
   TURBO    =      0    0=normal 1=particle mesh
   IRESTART =      0    0=no restart 2=restart with 2 vectors
   NREBOOT  =      0    no. of reboots
   NMIN     =      0    reboot dimension
   EREF     =   0.00    reference energy to select bands
   IMIX   =      4    mixing-type and parameters
     AMIX     =   0.40;   BMIX     =  1.00
     AMIX_MAG =   1.60;   BMIX_MAG =  1.00
     AMIN     =   0.10
     WC   =   100.;   INIMIX=   1;  MIXPRE=   1;  MAXMIX= -45

 Intra band minimization:
   WEIMIN = 0.0010     energy-eigenvalue tresh-hold
   EBREAK =  0.11E-07  absolut break condition
   DEPER  =   0.30     relativ break condition  

   TIME   =   0.40     timestep for ELM

  volume/ion in A,a.u.               =      28.33       191.17
  Fermi-wavevector in a.u.,A,eV,Ry     =   1.000100  1.889916 13.608559  1.000201
  Thomas-Fermi vector in A             =   2.132435
 
 Write flags
   LWAVE        =      F    write WAVECAR
   LDOWNSAMPLE  =      F    k-point downsampling of WAVECAR
   LCHARG       =      F    write CHGCAR
   LVTOT        =      F    write LOCPOT, total local potential
   LVHAR        =      F    write LOCPOT, Hartree potential only
   LELF         =      F    write electronic localiz. function (ELF)
   LORBIT       =      0    0 simple, 1 ext, 2 COOP (PROOUT), +10 PAW based schemes


 Dipole corrections
   LMONO  =      F    monopole corrections only (constant potential shift)
   LDIPOL =      T    correct potential (dipole corrections)
   IDIPOL =      3    1-x, 2-y, 3-z, 4-all directions 
   EPSILON=  1.0000000 bulk dielectric constant

 Exchange correlation treatment:
   GGA     =    --    GGA type
   LEXCH   =     8    internal setting for exchange type
   VOSKOWN=      0    Vosko Wilk Nusair interpolation
   LHFCALC =     F    Hartree Fock is set to
   LHFONE  =     F    Hartree Fock one center treatment
   AEXX    =    0.0000 exact exchange contribution

 Linear response parameters
   LEPSILON=     F    determine dielectric tensor
   LRPA    =     F    only Hartree local field effects (RPA)
   LNABLA  =     F    use nabla operator in PAW spheres
   LVEL    =     F    velocity operator in full k-point grid
   LINTERFAST=   F  fast interpolation
   KINTER  =     0    interpolate to denser k-point grid
   CSHIFT  =0.1000    complex shift for real part using Kramers Kronig
   OMEGAMAX=  -1.0    maximum frequency
   DEG_THRESHOLD= 0.2000000E-02 threshold for treating states as degnerate
   RTIME   =   -0.100 relaxation time in fs
  (WPLASMAI=    0.000 imaginary part of plasma frequency in eV, 0.658/RTIME)
   DFIELD  = 0.0000000 0.0000000 0.0000000 field for delta impulse in time
 
 Orbital magnetization related:
   ORBITALMAG=     F  switch on orbital magnetization
   LCHIMAG   =     F  perturbation theory with respect to B field
   DQ        =  0.001000  dq finite difference perturbation B field
   LLRAUG    =     F  two centre corrections for induced B field



--------------------------------------------------------------------------------------------------------


 conjugate gradient relaxation of ions
 charge density and potential will be updated during run
 spin polarized calculation
 RMM-DIIS sequential band-by-band and
  variant of blocked Davidson during initial phase
 perform sub-space diagonalisation
    before iterative eigenvector-optimisation
 modified Broyden-mixing scheme, WC =      100.0
 initial mixing is a Kerker type mixing with AMIX =  0.4000 and BMIX =      1.0000
 Hartree-type preconditioning will be used
 using additional bands           69
 reciprocal scheme for non local part
 use partial core corrections
 calculate Harris-corrections to forces 
   (improved forces if not selfconsistent)
 use gradient corrections 
 use of overlap-Matrix (Vanderbilt PP)
 Methfessel and Paxton  Order N= 1 SIGMA  =   0.10


--------------------------------------------------------------------------------------------------------


  energy-cutoff  :      500.00
  volume of cell :     1359.74
      direct lattice vectors                 reciprocal lattice vectors
    11.243700027  0.000000000  0.000000000     0.088938694  0.000000000  0.000000000
     0.000000000  5.875199795  0.000000000     0.000000000  0.170206978  0.000000000
     0.000000000  0.000000000 20.583700180     0.000000000  0.000000000  0.048582130

  length of vectors
    11.243700027  5.875199795 20.583700180     0.088938694  0.170206978  0.048582130


 
 k-points in units of 2pi/SCALE and weight: K-POINTS                                
   0.00000000  0.00000000  0.00000000       0.028
   0.01482312  0.00000000  0.00000000       0.056
   0.02964623  0.00000000  0.00000000       0.056
   0.04446935  0.00000000  0.00000000       0.028
   0.00000000  0.02836783  0.00000000       0.056
   0.01482312  0.02836783  0.00000000       0.111
   0.02964623  0.02836783  0.00000000       0.111
   0.04446935  0.02836783  0.00000000       0.056
   0.00000000  0.05673566  0.00000000       0.056
   0.01482312  0.05673566  0.00000000       0.111
   0.02964623  0.05673566  0.00000000       0.111
   0.04446935  0.05673566  0.00000000       0.056
   0.00000000  0.08510349  0.00000000       0.028
   0.01482312  0.08510349  0.00000000       0.056
   0.02964623  0.08510349  0.00000000       0.056
   0.04446935  0.08510349  0.00000000       0.028
 
 k-points in reciprocal lattice and weights: K-POINTS                                
   0.00000000  0.00000000  0.00000000       0.028
   0.16666667  0.00000000  0.00000000       0.056
   0.33333333  0.00000000  0.00000000       0.056
   0.50000000  0.00000000  0.00000000       0.028
   0.00000000  0.16666667  0.00000000       0.056
   0.16666667  0.16666667  0.00000000       0.111
   0.33333333  0.16666667  0.00000000       0.111
   0.50000000  0.16666667  0.00000000       0.056
   0.00000000  0.33333333  0.00000000       0.056
   0.16666667  0.33333333  0.00000000       0.111
   0.33333333  0.33333333  0.00000000       0.111
   0.50000000  0.33333333  0.00000000       0.056
   0.00000000  0.50000000  0.00000000       0.028
   0.16666667  0.50000000  0.00000000       0.056
   0.33333333  0.50000000  0.00000000       0.056
   0.50000000  0.50000000  0.00000000       0.028
 
 position of ions in fractional coordinates (direct lattice) 
   0.38383001  0.42987999  0.20407000
   0.56557000  0.92988002  0.14323001
   0.83860999  0.92988002  0.38659000
   0.33818001  0.17987999  0.05197000
   0.61122000  0.17987999  0.29532999
   0.58818001  0.42987999  0.05197000
   0.86122000  0.42987999  0.29532999
   0.72469997  0.42987999  0.17365000
   0.99773997  0.42987999  0.41701001
   0.33818001  0.67988002  0.05197000
   0.61122000  0.67988002  0.29532999
   0.88383001  0.92988002  0.20407000
   0.06557000  0.42987999  0.14323001
   0.33860999  0.42987999  0.38659000
   0.83818001  0.67988002  0.05197000
   0.11122000  0.67988002  0.29532999
   0.08818000  0.92988002  0.05197000
   0.36122000  0.92988002  0.29532999
   0.22470000  0.92988002  0.17365000
   0.49774000  0.92988002  0.41701001
   0.83818001  0.17987999  0.05197000
   0.11122000  0.17987999  0.29532999
   0.40404001  0.42987999  0.10394000
   0.67707998  0.42987999  0.34729999
   0.78746998  0.20878001  0.23633000
   0.16193000  0.70877999  0.11097000
   0.43498000  0.70877999  0.35433000
   0.16193000  0.15098000  0.11097000
   0.43498000  0.15098000  0.35433000
   0.39306000  0.92988002  0.10761000
   0.66610002  0.92988002  0.35098001
   0.27232000  0.92988002  0.00000000
   0.54536003  0.92988002  0.24336000
   0.55634999  0.42987999  0.23969001
   0.78746998  0.65098000  0.23633000
   0.90403998  0.92988002  0.10394000
   0.17708001  0.92988002  0.34729999
   0.28747001  0.70877999  0.23633000
   0.66193002  0.20878001  0.11097000
   0.93497997  0.20878001  0.35433000
   0.66193002  0.65098000  0.11097000
   0.93497997  0.65098000  0.35433000
   0.89306003  0.42987999  0.10761000
   0.16610000  0.42987999  0.35098001
   0.77231997  0.42987999  0.00000000
   0.04536000  0.42987999  0.24336000
   0.05635000  0.92988002  0.23969001
   0.28747001  0.15098000  0.23633000
 
 position of ions in cartesian coordinates  (Angst):
   4.31566951  2.52563085  4.20051574
   6.35909939  5.46323092  2.94820350
   9.42907920  5.46323092  7.95745273
   3.80239454  1.05683090  1.06973492
   6.87237435  1.05683090  6.07898393
   6.61331955  2.52563085  1.06973492
   9.68329936  2.52563085  6.07898393
   8.14830912  2.52563085  3.57435947
  11.21828894  2.52563085  8.58360900
   3.80239454  3.99443097  1.06973492
   6.87237435  3.99443097  6.07898393
   9.93751952  5.46323092  4.20051574
   0.73724938  2.52563085  2.94820350
   3.80722919  2.52563085  7.95745273
   9.42424456  3.99443097  1.06973492
   1.25052434  3.99443097  6.07898393
   0.99146945  5.46323092  1.06973492
   4.06144935  5.46323092  6.07898393
   2.52645944  5.46323092  3.57435947
   5.59643925  5.46323092  8.58360900
   9.42424456  1.05683090  1.06973492
   1.25052434  1.05683090  6.07898393
   4.54290466  2.52563085  2.13946986
   7.61288414  2.52563085  7.14871893
   8.85407627  1.22662425  4.86454593
   1.82069229  4.16422406  2.28417317
   4.89078469  4.16422406  7.29342255
   1.82069229  0.88703764  2.28417317
   4.89078469  0.88703764  7.29342255
   4.41944872  5.46323092  2.21501202
   7.48942887  5.46323092  7.22446738
   3.06188441  5.46323092  0.00000000
   6.13186457  5.46323092  5.00924923
   6.25543243  2.52563085  4.93370722
   8.85407627  3.82463754  4.86454593
  10.16475434  5.46323092  2.13946986
   1.99103446  5.46323092  7.14871893
   3.23222659  4.16422406  4.86454593
   7.44254264  1.22662425  2.28417317
  10.51263437  1.22662425  7.29342255
   7.44254264  3.82463754  2.28417317
  10.51263437  3.82463754  7.29342255
  10.04129907  2.52563085  2.21501202
   1.86757852  2.52563085  7.22446738
   8.68373410  2.52563085  0.00000000
   0.51001422  2.52563085  5.00924923
   0.63358250  5.46323092  4.93370722
   3.23222659  0.88703764  4.86454593
 


--------------------------------------------------------------------------------------------------------


 k-point  1 :   0.0000 0.0000 0.0000  plane waves:   34551
 k-point  2 :   0.1667 0.0000 0.0000  plane waves:   34547
 k-point  3 :   0.3333 0.0000 0.0000  plane waves:   34515
 k-point  4 :   0.5000 0.0000 0.0000  plane waves:   34532
 k-point  5 :   0.0000 0.1667 0.0000  plane waves:   34537
 k-point  6 :   0.1667 0.1667 0.0000  plane waves:   34513
 k-point  7 :   0.3333 0.1667 0.0000  plane waves:   34519
 k-point  8 :   0.5000 0.1667 0.0000  plane waves:   34506
 k-point  9 :   0.0000 0.3333 0.0000  plane waves:   34510
 k-point 10 :   0.1667 0.3333 0.0000  plane waves:   34544
 k-point 11 :   0.3333 0.3333 0.0000  plane waves:   34532
 k-point 12 :   0.5000 0.3333 0.0000  plane waves:   34462
 k-point 13 :   0.0000 0.5000 0.0000  plane waves:   34558
 k-point 14 :   0.1667 0.5000 0.0000  plane waves:   34570
 k-point 15 :   0.3333 0.5000 0.0000  plane waves:   34518
 k-point 16 :   0.5000 0.5000 0.0000  plane waves:   34512

 maximum and minimum number of plane-waves per node :      8670     8605

 maximum number of plane-waves:     34570
 maximum index in each direction: 
   IXMAX=   20   IYMAX=   10   IZMAX=   37
   IXMIN=  -20   IYMIN=  -11   IZMIN=  -37


 parallel 3D FFT for wavefunctions:
    minimum data exchange during FFTs selected (reduces bandwidth)
 parallel 3D FFT for charge:
    minimum data exchange during FFTs selected (reduces bandwidth)


 total amount of memory used by VASP MPI-rank0   349890. kBytes
=======================================================================

   base      :      30000. kBytes
   nonl-proj :      46448. kBytes
   fftplans  :       6044. kBytes
   grid      :      14827. kBytes
   one-center:        373. kBytes
   wavefun   :     252198. kBytes
 
     INWAV:  cpu time    0.0000: real time    0.0000
 Broyden mixing: mesh for mixing (old mesh)
   NGX = 41   NGY = 21   NGZ = 75
  (NGX  =128   NGY  = 64   NGZ  =240)
  gives a total of  64575 points

 initial charge density was supplied:
 charge density of overlapping atoms calculated
 number of electron     310.0000000 magnetization      75.0000000
 keeping initial charge density in first step


--------------------------------------------------------------------------------------------------------


 Maximum index for augmentation-charges          438 (set IRDMAX)


--------------------------------------------------------------------------------------------------------


 First call to EWALD:  gamma=   0.160
 Maximum number of real-space cells 3x 5x 2
 Maximum number of reciprocal cells 3x 2x 5

    FEWALD:  cpu time    0.0040: real time    0.0037


--------------------------------------- Iteration      1(   1)  ---------------------------------------


    POTLOK:  cpu time    0.3170: real time    0.3229
    SETDIJ:  cpu time    0.0260: real time    0.0254
     EDDAV:  cpu time  144.3151: real time  144.3397
       DOS:  cpu time    0.0070: real time    0.0072
    --------------------------------------------
      LOOP:  cpu time  144.6650: real time  144.6952

 eigenvalue-minimisations  : 14464
 total energy-change (2. order) : 0.4207217E+04  (-0.1160957E+05)
 number of electron     310.0000000 magnetization      75.0000000
 augmentation part      310.0000000 magnetization      75.0000000

 DIPCOR: dipole corrections for dipol
 direction  3 min pos   174,
 dipolmoment           0.000000      0.000000     -0.000033 electrons x Angstroem
 Tr[quadrupol]     -4051.440061

 energy correction for charged system         0.000000 eV
 dipol+quadrupol energy correction           -0.000000 eV
 added-field ion interaction         -0.000162 eV  (added to PSCEN)


 Free energy of the ion-electron system (eV)
  ---------------------------------------------------
  alpha Z        PSCENC =       532.65160325
  Ewald energy   TEWEN  =     60544.15491456
  -Hartree energ DENC   =    -80094.86815042
  -exchange      EXHF   =         0.00000000
  -V(xc)+E(xc)   XCENC  =       590.32218164
  PAW double counting   =     13515.53998570   -13252.98554041
  entropy T*S    EENTRO =        -0.00346480
  eigenvalues    EBANDS =      1959.98013305
  atomic energy  EATOM  =     20412.42511142
  Solvation  Ediel_sol  =         0.00000000
  ---------------------------------------------------
  free energy    TOTEN  =      4207.21677399 eV

  energy without entropy =     4207.22023879  energy(sigma->0) =     4207.21792893


--------------------------------------------------------------------------------------------------------




--------------------------------------- Iteration      1(   2)  ---------------------------------------


     EDDAV:  cpu time  143.4792: real time  143.5279
       DOS:  cpu time    0.0080: real time    0.0075
    --------------------------------------------
      LOOP:  cpu time  143.4872: real time  143.5354

 eigenvalue-minimisations  : 14344
 total energy-change (2. order) :-0.3313687E+04  (-0.3113269E+04)
 number of electron     310.0000000 magnetization      75.0000000
 augmentation part      310.0000000 magnetization      75.0000000

 DIPCOR: dipole corrections for dipol
 direction  3 min pos   174,
 dipolmoment           0.000000      0.000000     -0.000033 electrons x Angstroem
 Tr[quadrupol]     -4051.440061

 energy correction for charged system         0.000000 eV
 dipol+quadrupol energy correction           -0.000000 eV
 added-field ion interaction         -0.000162 eV  (added to PSCEN)


 Free energy of the ion-electron system (eV)
  ---------------------------------------------------
  alpha Z        PSCENC =       532.65160325
  Ewald energy   TEWEN  =     60544.15491456
  -Hartree energ DENC   =    -80094.86815042
  -exchange      EXHF   =         0.00000000
  -V(xc)+E(xc)   XCENC  =       590.32218164
  PAW double counting   =     13515.53998570   -13252.98554041
  entropy T*S    EENTRO =        -0.00540108
  eigenvalues    EBANDS =     -1353.70498188
  atomic energy  EATOM  =     20412.42511142
  Solvation  Ediel_sol  =         0.00000000
  ---------------------------------------------------
  free energy    TOTEN  =       893.52972278 eV

  energy without entropy =      893.53512386  energy(sigma->0) =      893.53152314


--------------------------------------------------------------------------------------------------------




--------------------------------------- Iteration      1(   3)  ---------------------------------------


     EDDAV:  cpu time  228.0993: real time  228.2276
       DOS:  cpu time    0.0080: real time    0.0074
    --------------------------------------------
      LOOP:  cpu time  228.1073: real time  228.2350

 eigenvalue-minimisations  : 25560
 total energy-change (2. order) :-0.1192579E+04  (-0.1131963E+04)
 number of electron     310.0000000 magnetization      75.0000000
 augmentation part      310.0000000 magnetization      75.0000000

 DIPCOR: dipole corrections for dipol
 direction  3 min pos   174,
 dipolmoment           0.000000      0.000000     -0.000033 electrons x Angstroem
 Tr[quadrupol]     -4051.440061

 energy correction for charged system         0.000000 eV
 dipol+quadrupol energy correction           -0.000000 eV
 added-field ion interaction         -0.000162 eV  (added to PSCEN)


 Free energy of the ion-electron system (eV)
  ---------------------------------------------------
  alpha Z        PSCENC =       532.65160325
  Ewald energy   TEWEN  =     60544.15491456
  -Hartree energ DENC   =    -80094.86815042
  -exchange      EXHF   =         0.00000000
  -V(xc)+E(xc)   XCENC  =       590.32218164
  PAW double counting   =     13515.53998570   -13252.98554041
  entropy T*S    EENTRO =        -0.00299668
  eigenvalues    EBANDS =     -2546.28637711
  atomic energy  EATOM  =     20412.42511142
  Solvation  Ediel_sol  =         0.00000000
  ---------------------------------------------------
  free energy    TOTEN  =      -299.04926805 eV

  energy without entropy =     -299.04627137  energy(sigma->0) =     -299.04826915


--------------------------------------------------------------------------------------------------------




--------------------------------------- Iteration      1(   4)  ---------------------------------------


     EDDAV:  cpu time  210.8020: real time  210.8392
       DOS:  cpu time    0.0070: real time    0.0073
    --------------------------------------------
      LOOP:  cpu time  210.8090: real time  210.8465

 eigenvalue-minimisations  : 23272
 total energy-change (2. order) :-0.1588709E+03  (-0.1544274E+03)
 number of electron     310.0000000 magnetization      75.0000000
 augmentation part      310.0000000 magnetization      75.0000000

 DIPCOR: dipole corrections for dipol
 direction  3 min pos   174,
 dipolmoment           0.000000      0.000000     -0.000033 electrons x Angstroem
 Tr[quadrupol]     -4051.440061

 energy correction for charged system         0.000000 eV
 dipol+quadrupol energy correction           -0.000000 eV
 added-field ion interaction         -0.000162 eV  (added to PSCEN)


 Free energy of the ion-electron system (eV)
  ---------------------------------------------------
  alpha Z        PSCENC =       532.65160325
  Ewald energy   TEWEN  =     60544.15491456
  -Hartree energ DENC   =    -80094.86815042
  -exchange      EXHF   =         0.00000000
  -V(xc)+E(xc)   XCENC  =       590.32218164
  PAW double counting   =     13515.53998570   -13252.98554041
  entropy T*S    EENTRO =         0.01089869
  eigenvalues    EBANDS =     -2705.17112798
  atomic energy  EATOM  =     20412.42511142
  Solvation  Ediel_sol  =         0.00000000
  ---------------------------------------------------
  free energy    TOTEN  =      -457.92012354 eV

  energy without entropy =     -457.93102223  energy(sigma->0) =     -457.92375644


--------------------------------------------------------------------------------------------------------




--------------------------------------- Iteration      1(   5)  ---------------------------------------


     EDDAV:  cpu time  211.9098: real time  211.9472
       DOS:  cpu time    0.0080: real time    0.0075
    CHARGE:  cpu time    2.3116: real time    2.3120
    MIXING:  cpu time    0.0090: real time    0.0089
    --------------------------------------------
      LOOP:  cpu time  214.2384: real time  214.2755

 eigenvalue-minimisations  : 23440
 total energy-change (2. order) :-0.5796746E+01  (-0.5680914E+01)
 number of electron     310.0000133 magnetization      70.4995515
 augmentation part       84.3943294 magnetization      53.2717592

 DIPCOR: dipole corrections for dipol
 direction  3 min pos   174,
 dipolmoment           0.000000      0.000000     -0.000033 electrons x Angstroem
 Tr[quadrupol]     -4051.440061

 energy correction for charged system         0.000000 eV
 dipol+quadrupol energy correction           -0.000000 eV
 added-field ion interaction         -0.000162 eV  (added to PSCEN)


 Broyden mixing:
  rms(total) = 0.74759E+01    rms(broyden)= 0.74748E+01
  rms(prec ) = 0.79373E+01
  weight for this iteration     100.00

 Free energy of the ion-electron system (eV)
  ---------------------------------------------------
  alpha Z        PSCENC =       532.65160325
  Ewald energy   TEWEN  =     60544.15491456
  -Hartree energ DENC   =    -80094.86815042
  -exchange      EXHF   =         0.00000000
  -V(xc)+E(xc)   XCENC  =       590.32218164
  PAW double counting   =     13515.53998570   -13252.98554041
  entropy T*S    EENTRO =         0.01354311
  eigenvalues    EBANDS =     -2710.97051874
  atomic energy  EATOM  =     20412.42511142
  Solvation  Ediel_sol  =         0.00000000
  ---------------------------------------------------
  free energy    TOTEN  =      -463.71686989 eV

  energy without entropy =     -463.73041300  energy(sigma->0) =     -463.72138426


--------------------------------------------------------------------------------------------------------




--------------------------------------- Iteration      1(   6)  ---------------------------------------


    POTLOK:  cpu time    0.4299: real time    0.5704
    SETDIJ:  cpu time    0.0260: real time    0.0257
    EDDIAG:  cpu time   13.9299: real time   13.9321
  RMM-DIIS:  cpu time   95.5735: real time   95.6163
    ORTHCH:  cpu time    2.9276: real time    2.9277
       DOS:  cpu time    0.0080: real time    0.0084
    CHARGE:  cpu time    2.6116: real time    2.6118
    MIXING:  cpu time    0.0100: real time    0.0094
    --------------------------------------------
      LOOP:  cpu time  115.5164: real time  115.7017

 eigenvalue-minimisations  : 16371
 total energy-change (2. order) : 0.1373546E+03  (-0.5839590E+02)
 number of electron     309.9999958 magnetization      67.5194923
 augmentation part       93.5710828 magnetization      53.0603243

 DIPCOR: dipole corrections for dipol
 direction  3 min pos   179,
 dipolmoment           0.000000      0.000000     -0.779501 electrons x Angstroem
 Tr[quadrupol]     -4055.844826

 energy correction for charged system         0.000000 eV
 dipol+quadrupol energy correction           -0.040450 eV
 added-field ion interaction        -17.587078 eV  (added to PSCEN)


 Broyden mixing:
  rms(total) = 0.43337E+01    rms(broyden)= 0.43321E+01
  rms(prec ) = 0.50048E+01
  weight for this iteration     100.00

 eigenvalues of (default mixing * dielectric matrix)
  average eigenvalue GAMMA=   0.6957
  0.6957

 Free energy of the ion-electron system (eV)
  ---------------------------------------------------
  alpha Z        PSCENC =       515.02423691
  Ewald energy   TEWEN  =     60544.15491456
  -Hartree energ DENC   =    -80532.18575710
  -exchange      EXHF   =         0.00000000
  -V(xc)+E(xc)   XCENC  =       583.52618908
  PAW double counting   =     14341.21220739   -14044.34669508
  entropy T*S    EENTRO =         0.00553436
  eigenvalues    EBANDS =     -2146.17797468
  atomic energy  EATOM  =     20412.42511142
  Solvation  Ediel_sol  =         0.00000000
  ---------------------------------------------------
  free energy    TOTEN  =      -326.36223313 eV

  energy without entropy =     -326.36776749  energy(sigma->0) =     -326.36407792


--------------------------------------------------------------------------------------------------------




--------------------------------------- Iteration      1(   7)  ---------------------------------------


    POTLOK:  cpu time    0.9449: real time    0.9504
    SETDIJ:  cpu time    0.0260: real time    0.0257
    EDDIAG:  cpu time   13.9849: real time   13.9873
  RMM-DIIS:  cpu time  100.0778: real time  100.1129
    ORTHCH:  cpu time    2.9316: real time    2.9322
       DOS:  cpu time    0.0080: real time    0.0079
    CHARGE:  cpu time    2.4746: real time    2.4748
    MIXING:  cpu time    0.0100: real time    0.0097
    --------------------------------------------
      LOOP:  cpu time  120.4577: real time  120.5009

 eigenvalue-minimisations  : 17156
 total energy-change (2. order) :-0.9994070E+02  (-0.1276555E+02)
 number of electron     310.0000127 magnetization      66.3022447
 augmentation part       89.2716892 magnetization      63.5657320

 DIPCOR: dipole corrections for dipol
 direction  3 min pos   172,
 dipolmoment           0.000000      0.000000      1.789248 electrons x Angstroem
 Tr[quadrupol]     -4063.347078

 energy correction for charged system         0.000000 eV
 dipol+quadrupol energy correction           -0.213119 eV
 added-field ion interaction         -3.966832 eV  (added to PSCEN)


 Broyden mixing:
  rms(total) = 0.13054E+02    rms(broyden)= 0.13054E+02
  rms(prec ) = 0.16525E+02
  weight for this iteration     100.00

 eigenvalues of (default mixing * dielectric matrix)
  average eigenvalue GAMMA=   0.3779
  0.7225  0.0332

 Free energy of the ion-electron system (eV)
  ---------------------------------------------------
  alpha Z        PSCENC =       528.47181401
  Ewald energy   TEWEN  =     60544.15491456
  -Hartree energ DENC   =    -80697.80764483
  -exchange      EXHF   =         0.00000000
  -V(xc)+E(xc)   XCENC  =       570.34886939
  PAW double counting   =     14448.96282727   -14182.53678221
  entropy T*S    EENTRO =        -0.00827598
  eigenvalues    EBANDS =     -2050.31376232
  atomic energy  EATOM  =     20412.42511142
  Solvation  Ediel_sol  =         0.00000000
  ---------------------------------------------------
  free energy    TOTEN  =      -426.30292870 eV

  energy without entropy =     -426.29465272  energy(sigma->0) =     -426.30017004


--------------------------------------------------------------------------------------------------------




--------------------------------------- Iteration      1(   8)  ---------------------------------------


    POTLOK:  cpu time    0.4199: real time    0.5917
    SETDIJ:  cpu time    0.0260: real time    0.0257
    EDDIAG:  cpu time   13.9699: real time   13.9722
  RMM-DIIS:  cpu time   90.6502: real time   90.6648
    ORTHCH:  cpu time    3.0195: real time    3.0208
       DOS:  cpu time    0.0070: real time    0.0076
    CHARGE:  cpu time    2.6806: real time    2.6806
    MIXING:  cpu time    0.0100: real time    0.0101
    --------------------------------------------
      LOOP:  cpu time  110.7832: real time  110.9735

 eigenvalue-minimisations  : 15486
 total energy-change (2. order) : 0.1051197E+03  (-0.2787022E+01)
 number of electron     310.0000030 magnetization      64.8886749
 augmentation part       87.1508233 magnetization      46.1253454

 DIPCOR: dipole corrections for dipol
 direction  3 min pos   168,
 dipolmoment           0.000000      0.000000      0.230850 electrons x Angstroem
 Tr[quadrupol]     -4062.121567

 energy correction for charged system         0.000000 eV
 dipol+quadrupol energy correction           -0.003548 eV
 added-field ion interaction         -3.780511 eV  (added to PSCEN)


 Broyden mixing:
  rms(total) = 0.28097E+01    rms(broyden)= 0.28084E+01
  rms(prec ) = 0.29881E+01
  weight for this iteration     100.00

 eigenvalues of (default mixing * dielectric matrix)
  average eigenvalue GAMMA=   0.4144
  0.7257  0.4270  0.0906

 Free energy of the ion-electron system (eV)
  ---------------------------------------------------
  alpha Z        PSCENC =       528.86770668
  Ewald energy   TEWEN  =     60544.15491456
  -Hartree energ DENC   =    -80661.95741558
  -exchange      EXHF   =         0.00000000
  -V(xc)+E(xc)   XCENC  =       573.15444875
  PAW double counting   =     14472.33597728   -14208.77362659
  entropy T*S    EENTRO =         0.00293380
  eigenvalues    EBANDS =     -1981.39331388
  atomic energy  EATOM  =     20412.42511142
  Solvation  Ediel_sol  =         0.00000000
  ---------------------------------------------------
  free energy    TOTEN  =      -321.18326355 eV

  energy without entropy =     -321.18619734  energy(sigma->0) =     -321.18424148


--------------------------------------------------------------------------------------------------------




--------------------------------------- Iteration      1(   9)  ---------------------------------------


    POTLOK:  cpu time    0.6469: real time    0.7181
    SETDIJ:  cpu time    0.0260: real time    0.0257
    EDDIAG:  cpu time   13.9339: real time   13.9359
  RMM-DIIS:  cpu time   87.3287: real time   87.3430
    ORTHCH:  cpu time    2.9296: real time    2.9299
       DOS:  cpu time    0.0070: real time    0.0072
    CHARGE:  cpu time    2.8096: real time    2.8102
    MIXING:  cpu time    0.0100: real time    0.0105
    --------------------------------------------
      LOOP:  cpu time  107.6916: real time  107.7805

 eigenvalue-minimisations  : 14976
 total energy-change (2. order) :-0.1596702E+02  (-0.1813573E+01)
 number of electron     310.0000014 magnetization      63.0289379
 augmentation part       88.5425287 magnetization      45.5176683

 DIPCOR: dipole corrections for dipol
 direction  3 min pos   166,
 dipolmoment           0.000000      0.000000      0.117519 electrons x Angstroem
 Tr[quadrupol]     -4061.944347

 energy correction for charged system         0.000000 eV
 dipol+quadrupol energy correction           -0.000919 eV
 added-field ion interaction         -2.756559 eV  (added to PSCEN)


 Broyden mixing:
  rms(total) = 0.14965E+01    rms(broyden)= 0.14961E+01
  rms(prec ) = 0.15605E+01
  weight for this iteration     100.00

 eigenvalues of (default mixing * dielectric matrix)
  average eigenvalue GAMMA=   0.4618
  0.0922  0.6288  0.6288  0.4973

 Free energy of the ion-electron system (eV)
  ---------------------------------------------------
  alpha Z        PSCENC =       529.89428705
  Ewald energy   TEWEN  =     60544.15491456
  -Hartree energ DENC   =    -80634.41112877
  -exchange      EXHF   =         0.00000000
  -V(xc)+E(xc)   XCENC  =       567.21564192
  PAW double counting   =     14474.62221650   -14213.97394688
  entropy T*S    EENTRO =         0.00081469
  eigenvalues    EBANDS =     -2017.07819456
  atomic energy  EATOM  =     20412.42511142
  Solvation  Ediel_sol  =         0.00000000
  ---------------------------------------------------
  free energy    TOTEN  =      -337.15028407 eV

  energy without entropy =     -337.15109876  energy(sigma->0) =     -337.15055564


--------------------------------------------------------------------------------------------------------




--------------------------------------- Iteration      1(  10)  ---------------------------------------


    POTLOK:  cpu time    0.5589: real time    0.5636
    SETDIJ:  cpu time    0.0260: real time    0.0257
    EDDIAG:  cpu time   14.0379: real time   14.0399
  RMM-DIIS:  cpu time   98.1521: real time   98.1672
    ORTHCH:  cpu time    2.9296: real time    2.9301
       DOS:  cpu time    0.0080: real time    0.0077
    CHARGE:  cpu time    2.7336: real time    2.7342
    MIXING:  cpu time    0.0110: real time    0.0113
    --------------------------------------------
      LOOP:  cpu time  118.4570: real time  118.4797

 eigenvalue-minimisations  : 16841
 total energy-change (2. order) :-0.1059052E+02  (-0.1124707E+01)
 number of electron     310.0000010 magnetization      59.7981973
 augmentation part       88.0737178 magnetization      42.1861912

 DIPCOR: dipole corrections for dipol
 direction  3 min pos   165,
 dipolmoment           0.000000      0.000000     -0.135338 electrons x Angstroem
 Tr[quadrupol]     -4063.502234

 energy correction for charged system         0.000000 eV
 dipol+quadrupol energy correction           -0.001219 eV
 added-field ion interaction          3.653600 eV  (added to PSCEN)


 Broyden mixing:
  rms(total) = 0.11749E+01    rms(broyden)= 0.11748E+01
  rms(prec ) = 0.12256E+01
  weight for this iteration     100.00

 eigenvalues of (default mixing * dielectric matrix)
  average eigenvalue GAMMA=   0.5527
  0.8631  0.8631  0.0918  0.5050  0.4404

 Free energy of the ion-electron system (eV)
  ---------------------------------------------------
  alpha Z        PSCENC =       536.30414518
  Ewald energy   TEWEN  =     60544.15491456
  -Hartree energ DENC   =    -80659.56577409
  -exchange      EXHF   =         0.00000000
  -V(xc)+E(xc)   XCENC  =       564.77617547
  PAW double counting   =     14507.99805301   -14252.52896139
  entropy T*S    EENTRO =        -0.01222660
  eigenvalues    EBANDS =     -2001.29224499
  atomic energy  EATOM  =     20412.42511142
  Solvation  Ediel_sol  =         0.00000000
  ---------------------------------------------------
  free energy    TOTEN  =      -347.74080743 eV

  energy without entropy =     -347.72858083  energy(sigma->0) =     -347.73673189


--------------------------------------------------------------------------------------------------------




--------------------------------------- Iteration      1(  11)  ---------------------------------------


    POTLOK:  cpu time    1.0398: real time    1.0948
    SETDIJ:  cpu time    0.0260: real time    0.0258
    EDDIAG:  cpu time   13.8829: real time   13.8851
  RMM-DIIS:  cpu time   89.1055: real time   89.1196
    ORTHCH:  cpu time    2.9356: real time    2.9356
       DOS:  cpu time    0.0080: real time    0.0075
    CHARGE:  cpu time    2.8606: real time    2.8613
    MIXING:  cpu time    0.0120: real time    0.0116
    --------------------------------------------
      LOOP:  cpu time  109.8703: real time  109.9415

 eigenvalue-minimisations  : 15264
 total energy-change (2. order) :-0.3762138E+01  (-0.7564330E+00)
 number of electron     310.0000021 magnetization      56.7046924
 augmentation part       88.9241656 magnetization      39.9989726

 DIPCOR: dipole corrections for dipol
 direction  3 min pos   165,
 dipolmoment           0.000000      0.000000      0.127745 electrons x Angstroem
 Tr[quadrupol]     -4064.045248

 energy correction for charged system         0.000000 eV
 dipol+quadrupol energy correction           -0.001086 eV
 added-field ion interaction         -3.448609 eV  (added to PSCEN)


 Broyden mixing:
  rms(total) = 0.97406E+00    rms(broyden)= 0.97393E+00
  rms(prec ) = 0.10713E+01
  weight for this iteration     100.00

 eigenvalues of (default mixing * dielectric matrix)
  average eigenvalue GAMMA=   0.6124
  1.1301  1.1301  0.0918  0.4442  0.4442  0.4337

 Free energy of the ion-electron system (eV)
  ---------------------------------------------------
  alpha Z        PSCENC =       529.20206973
  Ewald energy   TEWEN  =     60544.15491456
  -Hartree energ DENC   =    -80657.75607811
  -exchange      EXHF   =         0.00000000
  -V(xc)+E(xc)   XCENC  =       564.77912141
  PAW double counting   =     14530.65669457   -14281.70727104
  entropy T*S    EENTRO =         0.00871469
  eigenvalues    EBANDS =     -1993.26622299
  atomic energy  EATOM  =     20412.42511142
  Solvation  Ediel_sol  =         0.00000000
  ---------------------------------------------------
  free energy    TOTEN  =      -351.50294576 eV

  energy without entropy =     -351.51166045  energy(sigma->0) =     -351.50585065


--------------------------------------------------------------------------------------------------------




--------------------------------------- Iteration      1(  12)  ---------------------------------------


    POTLOK:  cpu time    0.3809: real time    0.3863
    SETDIJ:  cpu time    0.0260: real time    0.0258
    EDDIAG:  cpu time   13.8379: real time   13.8399
  RMM-DIIS:  cpu time   98.1541: real time   98.1710
    ORTHCH:  cpu time    2.9346: real time    2.9346
       DOS:  cpu time    0.0080: real time    0.0084
    CHARGE:  cpu time    2.7556: real time    2.7563
    MIXING:  cpu time    0.0120: real time    0.0122
    --------------------------------------------
      LOOP:  cpu time  118.1090: real time  118.1345

 eigenvalue-minimisations  : 16872
 total energy-change (2. order) :-0.1112492E+02  (-0.6041782E+00)
 number of electron     310.0000013 magnetization      53.4468263
 augmentation part       88.4743534 magnetization      36.6011174

 DIPCOR: dipole corrections for dipol
 direction  3 min pos   165,
 dipolmoment           0.000000      0.000000     -0.140269 electrons x Angstroem
 Tr[quadrupol]     -4066.527259

 energy correction for charged system         0.000000 eV
 dipol+quadrupol energy correction           -0.001310 eV
 added-field ion interaction          3.786708 eV  (added to PSCEN)


 Broyden mixing:
  rms(total) = 0.84838E+00    rms(broyden)= 0.84827E+00
  rms(prec ) = 0.86277E+00
  weight for this iteration     100.00

 eigenvalues of (default mixing * dielectric matrix)
  average eigenvalue GAMMA=   0.7125
  1.9432  0.8030  0.8030  0.0918  0.5797  0.3834  0.3834

 Free energy of the ion-electron system (eV)
  ---------------------------------------------------
  alpha Z        PSCENC =       536.43716313
  Ewald energy   TEWEN  =     60544.15491456
  -Hartree energ DENC   =    -80709.22895200
  -exchange      EXHF   =         0.00000000
  -V(xc)+E(xc)   XCENC  =       559.29909349
  PAW double counting   =     14574.48530451   -14332.88364966
  entropy T*S    EENTRO =        -0.01217717
  eigenvalues    EBANDS =     -1947.30467514
  atomic energy  EATOM  =     20412.42511142
  Solvation  Ediel_sol  =         0.00000000
  ---------------------------------------------------
  free energy    TOTEN  =      -362.62786686 eV

  energy without entropy =     -362.61568969  energy(sigma->0) =     -362.62380780


--------------------------------------------------------------------------------------------------------




--------------------------------------- Iteration      1(  13)  ---------------------------------------


    POTLOK:  cpu time    0.5079: real time    0.5121
    SETDIJ:  cpu time    0.0260: real time    0.0258
    EDDIAG:  cpu time   13.9279: real time   13.9302
  RMM-DIIS:  cpu time   98.6750: real time   98.6903
    ORTHCH:  cpu time    2.9376: real time    2.9385
       DOS:  cpu time    0.0080: real time    0.0080
    CHARGE:  cpu time    2.7856: real time    2.7856
    MIXING:  cpu time    0.0130: real time    0.0129
    --------------------------------------------
      LOOP:  cpu time  118.8809: real time  118.9033

 eigenvalue-minimisations  : 16938
 total energy-change (2. order) :-0.3569368E+01  (-0.2699670E+00)
 number of electron     310.0000025 magnetization      52.0002853
 augmentation part       88.7405735 magnetization      35.5120587

 DIPCOR: dipole corrections for dipol
 direction  3 min pos   166,
 dipolmoment           0.000000      0.000000      0.007326 electrons x Angstroem
 Tr[quadrupol]     -4067.140727

 energy correction for charged system         0.000000 eV
 dipol+quadrupol energy correction           -0.000004 eV
 added-field ion interaction         -0.171846 eV  (added to PSCEN)


 Broyden mixing:
  rms(total) = 0.82070E+00    rms(broyden)= 0.82046E+00
  rms(prec ) = 0.92225E+00
  weight for this iteration     100.00

 eigenvalues of (default mixing * dielectric matrix)
  average eigenvalue GAMMA=   0.7462
  2.2969  0.8806  0.8806  0.0918  0.6525  0.5035  0.3320  0.3320

 Free energy of the ion-electron system (eV)
  ---------------------------------------------------
  alpha Z        PSCENC =       532.47991525
  Ewald energy   TEWEN  =     60544.15491456
  -Hartree energ DENC   =    -80730.67526260
  -exchange      EXHF   =         0.00000000
  -V(xc)+E(xc)   XCENC  =       556.13381301
  PAW double counting   =     14605.26496510   -14368.29914421
  entropy T*S    EENTRO =         0.01394160
  eigenvalues    EBANDS =     -1917.69548870
  atomic energy  EATOM  =     20412.42511142
  Solvation  Ediel_sol  =         0.00000000
  ---------------------------------------------------
  free energy    TOTEN  =      -366.19723457 eV

  energy without entropy =     -366.21117617  energy(sigma->0) =     -366.20188177


--------------------------------------------------------------------------------------------------------




--------------------------------------- Iteration      1(  14)  ---------------------------------------


    POTLOK:  cpu time    0.3759: real time    0.3818
    SETDIJ:  cpu time    0.0260: real time    0.0257
    EDDIAG:  cpu time   13.9399: real time   13.9424
  RMM-DIIS:  cpu time  103.2463: real time  103.2617
    ORTHCH:  cpu time    2.9336: real time    2.9336
       DOS:  cpu time    0.0080: real time    0.0082
    CHARGE:  cpu time    2.8346: real time    2.8356
    MIXING:  cpu time    0.0140: real time    0.0135
    --------------------------------------------
      LOOP:  cpu time  123.3782: real time  123.4025

 eigenvalue-minimisations  : 17730
 total energy-change (2. order) :-0.2751323E+01  (-0.1428111E+00)
 number of electron     310.0000022 magnetization      49.2728837
 augmentation part       88.5417523 magnetization      32.8206268

 DIPCOR: dipole corrections for dipol
 direction  3 min pos   167,
 dipolmoment           0.000000      0.000000     -0.082094 electrons x Angstroem
 Tr[quadrupol]     -4067.209512

 energy correction for charged system         0.000000 eV
 dipol+quadrupol energy correction           -0.000449 eV
 added-field ion interaction          1.635005 eV  (added to PSCEN)


 Broyden mixing:
  rms(total) = 0.64975E+00    rms(broyden)= 0.64973E+00
  rms(prec ) = 0.72849E+00
  weight for this iteration     100.00

 eigenvalues of (default mixing * dielectric matrix)
  average eigenvalue GAMMA=   0.8483
  2.9651  0.9820  0.9820  0.7112  0.7112  0.0918  0.4963  0.3476  0.3476

 Free energy of the ion-electron system (eV)
  ---------------------------------------------------
  alpha Z        PSCENC =       534.28632168
  Ewald energy   TEWEN  =     60544.15491456
  -Hartree energ DENC   =    -80735.75157617
  -exchange      EXHF   =         0.00000000
  -V(xc)+E(xc)   XCENC  =       553.46200451
  PAW double counting   =     14610.87403544   -14374.86961640
  entropy T*S    EENTRO =         0.00157100
  eigenvalues    EBANDS =     -1913.53132388
  atomic energy  EATOM  =     20412.42511142
  Solvation  Ediel_sol  =         0.00000000
  ---------------------------------------------------
  free energy    TOTEN  =      -368.94855784 eV

  energy without entropy =     -368.95012884  energy(sigma->0) =     -368.94908151


--------------------------------------------------------------------------------------------------------




--------------------------------------- Iteration      1(  15)  ---------------------------------------


    POTLOK:  cpu time    0.8149: real time    0.8191
    SETDIJ:  cpu time    0.0260: real time    0.0257
    EDDIAG:  cpu time   13.9819: real time   13.9843
  RMM-DIIS:  cpu time   96.8993: real time   96.9275
    ORTHCH:  cpu time    2.9366: real time    2.9370
       DOS:  cpu time    0.0080: real time    0.0082
    CHARGE:  cpu time    2.8426: real time    2.8434
    MIXING:  cpu time    0.0150: real time    0.0144
    --------------------------------------------
      LOOP:  cpu time  117.5241: real time  117.5597

 eigenvalue-minimisations  : 16641
 total energy-change (2. order) :-0.5880533E+01  (-0.2095712E+00)
 number of electron     310.0000015 magnetization      46.9456598
 augmentation part       88.4817817 magnetization      30.5345430

 DIPCOR: dipole corrections for dipol
 direction  3 min pos   168,
 dipolmoment           0.000000      0.000000     -0.194250 electrons x Angstroem
 Tr[quadrupol]     -4067.069430

 energy correction for charged system         0.000000 eV
 dipol+quadrupol energy correction           -0.002512 eV
 added-field ion interaction          3.181128 eV  (added to PSCEN)


 Broyden mixing:
  rms(total) = 0.56059E+00    rms(broyden)= 0.56047E+00
  rms(prec ) = 0.58670E+00
  weight for this iteration     100.00

 eigenvalues of (default mixing * dielectric matrix)
  average eigenvalue GAMMA=   0.9281
  3.6001  1.0965  1.0965  0.7932  0.7932  0.0918  0.6413  0.4580  0.3554  0.3554

 Free energy of the ion-electron system (eV)
  ---------------------------------------------------
  alpha Z        PSCENC =       535.83038125
  Ewald energy   TEWEN  =     60544.15491456
  -Hartree energ DENC   =    -80731.85848552
  -exchange      EXHF   =         0.00000000
  -V(xc)+E(xc)   XCENC  =       547.80038356
  PAW double counting   =     14597.91055614   -14362.00219692
  entropy T*S    EENTRO =        -0.01500253
  eigenvalues    EBANDS =     -1919.07475316
  atomic energy  EATOM  =     20412.42511142
  Solvation  Ediel_sol  =         0.00000000
  ---------------------------------------------------
  free energy    TOTEN  =      -374.82909121 eV

  energy without entropy =     -374.81408868  energy(sigma->0) =     -374.82409037


--------------------------------------------------------------------------------------------------------




--------------------------------------- Iteration      1(  16)  ---------------------------------------


    POTLOK:  cpu time    0.6039: real time    0.6086
    SETDIJ:  cpu time    0.0260: real time    0.0258
    EDDIAG:  cpu time   13.9639: real time   13.9664
  RMM-DIIS:  cpu time   99.7218: real time   99.7404
    ORTHCH:  cpu time    2.9326: real time    2.9331
       DOS:  cpu time    0.0080: real time    0.0083
    CHARGE:  cpu time    2.9026: real time    2.9029
    MIXING:  cpu time    0.0160: real time    0.0152
    --------------------------------------------
      LOOP:  cpu time  120.1747: real time  120.2007

 eigenvalue-minimisations  : 17113
 total energy-change (2. order) :-0.4796925E+01  (-0.2344503E+00)
 number of electron     310.0000016 magnetization      44.9020366
 augmentation part       88.4001460 magnetization      28.6376400

 DIPCOR: dipole corrections for dipol
 direction  3 min pos   170,
 dipolmoment           0.000000      0.000000     -0.246352 electrons x Angstroem
 Tr[quadrupol]     -4066.761484

 energy correction for charged system         0.000000 eV
 dipol+quadrupol energy correction           -0.004040 eV
 added-field ion interaction          2.290277 eV  (added to PSCEN)


 Broyden mixing:
  rms(total) = 0.41871E+00    rms(broyden)= 0.41868E+00
  rms(prec ) = 0.44470E+00
  weight for this iteration     100.00

 eigenvalues of (default mixing * dielectric matrix)
  average eigenvalue GAMMA=   1.0354
  4.5379  1.4899  0.9685  0.8982  0.8982  0.0918  0.6655  0.6655  0.4709  0.3516
  0.3516

 Free energy of the ion-electron system (eV)
  ---------------------------------------------------
  alpha Z        PSCENC =       534.93800175
  Ewald energy   TEWEN  =     60544.15491456
  -Hartree energ DENC   =    -80722.48301369
  -exchange      EXHF   =         0.00000000
  -V(xc)+E(xc)   XCENC  =       542.76375452
  PAW double counting   =     14584.69593316   -14348.58699206
  entropy T*S    EENTRO =        -0.01328739
  eigenvalues    EBANDS =     -1927.52043856
  atomic energy  EATOM  =     20412.42511142
  Solvation  Ediel_sol  =         0.00000000
  ---------------------------------------------------
  free energy    TOTEN  =      -379.62601629 eV

  energy without entropy =     -379.61272890  energy(sigma->0) =     -379.62158716


--------------------------------------------------------------------------------------------------------




--------------------------------------- Iteration      1(  17)  ---------------------------------------


    POTLOK:  cpu time    0.5109: real time    0.7630
    SETDIJ:  cpu time    0.0260: real time    0.0256
    EDDIAG:  cpu time   13.9349: real time   13.9368
  RMM-DIIS:  cpu time  102.9374: real time  102.9533
    ORTHCH:  cpu time    2.9276: real time    2.9284
       DOS:  cpu time    0.0080: real time    0.0080
    CHARGE:  cpu time    2.7736: real time    2.7733
    MIXING:  cpu time    0.0160: real time    0.0159
    --------------------------------------------
      LOOP:  cpu time  123.1343: real time  123.4041

 eigenvalue-minimisations  : 17661
 total energy-change (2. order) :-0.3801780E+01  (-0.2516289E+00)
 number of electron     310.0000016 magnetization      43.5951659
 augmentation part       88.4441753 magnetization      27.5522864

 DIPCOR: dipole corrections for dipol
 direction  3 min pos   175,
 dipolmoment           0.000000      0.000000     -0.253665 electrons x Angstroem
 Tr[quadrupol]     -4066.066195

 energy correction for charged system         0.000000 eV
 dipol+quadrupol energy correction           -0.004284 eV
 added-field ion interaction         -2.131434 eV  (added to PSCEN)


 Broyden mixing:
  rms(total) = 0.25308E+00    rms(broyden)= 0.25305E+00
  rms(prec ) = 0.30347E+00
  weight for this iteration     100.00

 eigenvalues of (default mixing * dielectric matrix)
  average eigenvalue GAMMA=   1.1710
  5.7608  1.9361  1.0772  1.0772  0.0918  0.7843  0.7843  0.7400  0.6309  0.4646
  0.3524  0.3524

 Free energy of the ion-electron system (eV)
  ---------------------------------------------------
  alpha Z        PSCENC =       530.51604792
  Ewald energy   TEWEN  =     60544.15491456
  -Hartree energ DENC   =    -80708.08338016
  -exchange      EXHF   =         0.00000000
  -V(xc)+E(xc)   XCENC  =       538.65106793
  PAW double counting   =     14569.01864268   -14331.76213100
  entropy T*S    EENTRO =        -0.01355483
  eigenvalues    EBANDS =     -1938.33451529
  atomic energy  EATOM  =     20412.42511142
  Solvation  Ediel_sol  =         0.00000000
  ---------------------------------------------------
  free energy    TOTEN  =      -383.42779677 eV

  energy without entropy =     -383.41424194  energy(sigma->0) =     -383.42327849


--------------------------------------------------------------------------------------------------------




--------------------------------------- Iteration      1(  18)  ---------------------------------------


    POTLOK:  cpu time    0.4919: real time    0.4960
    SETDIJ:  cpu time    0.0250: real time    0.0258
    EDDIAG:  cpu time   13.8719: real time   13.8738
  RMM-DIIS:  cpu time  102.1425: real time  102.1618
    ORTHCH:  cpu time    2.9296: real time    2.9295
       DOS:  cpu time    0.0070: real time    0.0077
    CHARGE:  cpu time    2.8006: real time    2.8012
    MIXING:  cpu time    0.0170: real time    0.0169
    --------------------------------------------
      LOOP:  cpu time  122.2854: real time  122.3126

 eigenvalue-minimisations  : 17585
 total energy-change (2. order) :-0.2803830E+01  (-0.2527564E+00)
 number of electron     310.0000013 magnetization      43.0080925
 augmentation part       88.3378123 magnetization      27.0470785

 DIPCOR: dipole corrections for dipol
 direction  3 min pos   181,
 dipolmoment           0.000000      0.000000     -0.287825 electrons x Angstroem
 Tr[quadrupol]     -4065.334432

 energy correction for charged system         0.000000 eV
 dipol+quadrupol energy correction           -0.005515 eV
 added-field ion interaction         -8.531611 eV  (added to PSCEN)


 Broyden mixing:
  rms(total) = 0.23678E+00    rms(broyden)= 0.23670E+00
  rms(prec ) = 0.25199E+00
  weight for this iteration     100.00

 eigenvalues of (default mixing * dielectric matrix)
  average eigenvalue GAMMA=   1.2328
  6.6452  2.0634  1.3046  1.0264  1.0264  0.7687  0.7687  0.0918  0.5778  0.5778
  0.4712  0.3525  0.3525

 Free energy of the ion-electron system (eV)
  ---------------------------------------------------
  alpha Z        PSCENC =       524.11463892
  Ewald energy   TEWEN  =     60544.15491456
  -Hartree energ DENC   =    -80692.22905590
  -exchange      EXHF   =         0.00000000
  -V(xc)+E(xc)   XCENC  =       535.89679740
  PAW double counting   =     14555.96274544   -14317.54598924
  entropy T*S    EENTRO =        -0.00702999
  eigenvalues    EBANDS =     -1949.00375943
  atomic energy  EATOM  =     20412.42511142
  Solvation  Ediel_sol  =         0.00000000
  ---------------------------------------------------
  free energy    TOTEN  =      -386.23162682 eV

  energy without entropy =     -386.22459683  energy(sigma->0) =     -386.22928349


--------------------------------------------------------------------------------------------------------




--------------------------------------- Iteration      1(  19)  ---------------------------------------


    POTLOK:  cpu time    0.8589: real time    0.8674
    SETDIJ:  cpu time    0.0250: real time    0.0256
    EDDIAG:  cpu time   13.9799: real time   13.9821
  RMM-DIIS:  cpu time  104.3431: real time  104.3588
    ORTHCH:  cpu time    2.9346: real time    2.9352
       DOS:  cpu time    0.0080: real time    0.0081
    CHARGE:  cpu time    2.8966: real time    2.8964
    MIXING:  cpu time    0.0170: real time    0.0178
    --------------------------------------------
      LOOP:  cpu time  125.0640: real time  125.0914

 eigenvalue-minimisations  : 18046
 total energy-change (2. order) :-0.8981354E+00  (-0.1272845E+00)
 number of electron     310.0000014 magnetization      42.7663870
 augmentation part       88.3773055 magnetization      26.9734218

 DIPCOR: dipole corrections for dipol
 direction  3 min pos   184,
 dipolmoment           0.000000      0.000000     -0.273654 electrons x Angstroem
 Tr[quadrupol]     -4064.785458

 energy correction for charged system         0.000000 eV
 dipol+quadrupol energy correction           -0.004985 eV
 added-field ion interaction        -11.017672 eV  (added to PSCEN)


 Broyden mixing:
  rms(total) = 0.14856E+00    rms(broyden)= 0.14854E+00
  rms(prec ) = 0.17028E+00
  weight for this iteration     100.00

 eigenvalues of (default mixing * dielectric matrix)
  average eigenvalue GAMMA=   1.3101
  7.1782  2.4667  1.9519  1.0172  1.0172  0.8275  0.8275  0.0918  0.6397  0.6397
  0.3526  0.3526  0.4790  0.5000

 Free energy of the ion-electron system (eV)
  ---------------------------------------------------
  alpha Z        PSCENC =       521.62910779
  Ewald energy   TEWEN  =     60544.15491456
  -Hartree energ DENC   =    -80675.88361698
  -exchange      EXHF   =         0.00000000
  -V(xc)+E(xc)   XCENC  =       534.65741634
  PAW double counting   =     14547.96983372   -14308.86461830
  entropy T*S    EENTRO =        -0.00684662
  eigenvalues    EBANDS =     -1963.21106420
  atomic energy  EATOM  =     20412.42511142
  Solvation  Ediel_sol  =         0.00000000
  ---------------------------------------------------
  free energy    TOTEN  =      -387.12976227 eV

  energy without entropy =     -387.12291565  energy(sigma->0) =     -387.12748007


--------------------------------------------------------------------------------------------------------




--------------------------------------- Iteration      1(  20)  ---------------------------------------


    POTLOK:  cpu time    0.3409: real time    0.3441
    SETDIJ:  cpu time    0.0260: real time    0.0258
    EDDIAG:  cpu time   13.8459: real time   13.8508
  RMM-DIIS:  cpu time  107.5976: real time  107.6612
    ORTHCH:  cpu time    2.9306: real time    2.9315
       DOS:  cpu time    0.0080: real time    0.0075
    CHARGE:  cpu time    2.8646: real time    2.8650
    MIXING:  cpu time    0.0180: real time    0.0189
    --------------------------------------------
      LOOP:  cpu time  127.6306: real time  127.7048

 eigenvalue-minimisations  : 18490
 total energy-change (2. order) :-0.3340262E+00  (-0.6985501E-01)
 number of electron     310.0000014 magnetization      42.6152739
 augmentation part       88.3792397 magnetization      26.8914983

 DIPCOR: dipole corrections for dipol
 direction  3 min pos   185,
 dipolmoment           0.000000      0.000000     -0.290450 electrons x Angstroem
 Tr[quadrupol]     -4064.310669

 energy correction for charged system         0.000000 eV
 dipol+quadrupol energy correction           -0.005616 eV
 added-field ion interaction        -12.722037 eV  (added to PSCEN)


 Broyden mixing:
  rms(total) = 0.10484E+00    rms(broyden)= 0.10482E+00
  rms(prec ) = 0.12345E+00
  weight for this iteration     100.00

 eigenvalues of (default mixing * dielectric matrix)
  average eigenvalue GAMMA=   1.3419
  7.4198  2.9703  2.1736  1.0717  1.0717  0.0918  0.8312  0.8312  0.7169  0.6388
  0.6388  0.3526  0.3526  0.4837  0.4837

 Free energy of the ion-electron system (eV)
  ---------------------------------------------------
  alpha Z        PSCENC =       519.92411219
  Ewald energy   TEWEN  =     60544.15491456
  -Hartree energ DENC   =    -80661.13961611
  -exchange      EXHF   =         0.00000000
  -V(xc)+E(xc)   XCENC  =       534.02676764
  PAW double counting   =     14544.98828683   -14305.54296214
  entropy T*S    EENTRO =        -0.00527715
  eigenvalues    EBANDS =     -1976.29512571
  atomic energy  EATOM  =     20412.42511142
  Solvation  Ediel_sol  =         0.00000000
  ---------------------------------------------------
  free energy    TOTEN  =      -387.46378847 eV

  energy without entropy =     -387.45851132  energy(sigma->0) =     -387.46202942


--------------------------------------------------------------------------------------------------------




--------------------------------------- Iteration      1(  21)  ---------------------------------------


    POTLOK:  cpu time    0.3270: real time    0.3304
    SETDIJ:  cpu time    0.0260: real time    0.0257
    EDDIAG:  cpu time   13.8269: real time   13.8294
  RMM-DIIS:  cpu time  104.5211: real time  104.5536
    ORTHCH:  cpu time    2.9286: real time    2.9293
       DOS:  cpu time    0.0080: real time    0.0082
    CHARGE:  cpu time    2.8616: real time    2.8614
    MIXING:  cpu time    0.0190: real time    0.0194
    --------------------------------------------
      LOOP:  cpu time  124.5181: real time  124.5574

 eigenvalue-minimisations  : 17922
 total energy-change (2. order) :-0.1955089E+00  (-0.2730886E-01)
 number of electron     310.0000014 magnetization      42.4707265
 augmentation part       88.3816240 magnetization      26.7952045

 DIPCOR: dipole corrections for dipol
 direction  3 min pos   185,
 dipolmoment           0.000000      0.000000     -0.306350 electrons x Angstroem
 Tr[quadrupol]     -4063.886488

 energy correction for charged system         0.000000 eV
 dipol+quadrupol energy correction           -0.006248 eV
 added-field ion interaction        -13.418480 eV  (added to PSCEN)


 Broyden mixing:
  rms(total) = 0.78152E-01    rms(broyden)= 0.78140E-01
  rms(prec ) = 0.93704E-01
  weight for this iteration     100.00

 eigenvalues of (default mixing * dielectric matrix)
  average eigenvalue GAMMA=   1.3469
  7.4980  3.3897  2.1122  1.1484  1.1484  0.0918  0.8353  0.8353  0.7752  0.7752
  0.6322  0.6322  0.3526  0.3526  0.4858  0.4858

 Free energy of the ion-electron system (eV)
  ---------------------------------------------------
  alpha Z        PSCENC =       519.22703743
  Ewald energy   TEWEN  =     60544.15491456
  -Hartree energ DENC   =    -80646.33355085
  -exchange      EXHF   =         0.00000000
  -V(xc)+E(xc)   XCENC  =       533.46634761
  PAW double counting   =     14543.04145749   -14303.53565647
  entropy T*S    EENTRO =        -0.00441875
  eigenvalues    EBANDS =     -1990.10053985
  atomic energy  EATOM  =     20412.42511142
  Solvation  Ediel_sol  =         0.00000000
  ---------------------------------------------------
  free energy    TOTEN  =      -387.65929741 eV

  energy without entropy =     -387.65487866  energy(sigma->0) =     -387.65782450


--------------------------------------------------------------------------------------------------------




--------------------------------------- Iteration      1(  22)  ---------------------------------------


    POTLOK:  cpu time    0.4699: real time    0.4754
    SETDIJ:  cpu time    0.0260: real time    0.0257
    EDDIAG:  cpu time   13.8229: real time   13.8257
  RMM-DIIS:  cpu time  105.3870: real time  105.4057
    ORTHCH:  cpu time    2.9316: real time    2.9315
       DOS:  cpu time    0.0080: real time    0.0080
    CHARGE:  cpu time    2.8416: real time    2.8417
    MIXING:  cpu time    0.0200: real time    0.0204
    --------------------------------------------
      LOOP:  cpu time  125.5069: real time  125.5341

 eigenvalue-minimisations  : 18198
 total energy-change (2. order) :-0.1533609E+00  (-0.1397685E-01)
 number of electron     310.0000014 magnetization      42.3277758
 augmentation part       88.3856023 magnetization      26.6697600

 DIPCOR: dipole corrections for dipol
 direction  3 min pos   185,
 dipolmoment           0.000000      0.000000     -0.318048 electrons x Angstroem
 Tr[quadrupol]     -4063.500722

 energy correction for charged system         0.000000 eV
 dipol+quadrupol energy correction           -0.006734 eV
 added-field ion interaction        -13.930842 eV  (added to PSCEN)


 Broyden mixing:
  rms(total) = 0.60298E-01    rms(broyden)= 0.60289E-01
  rms(prec ) = 0.70023E-01
  weight for this iteration     100.00

 eigenvalues of (default mixing * dielectric matrix)
  average eigenvalue GAMMA=   1.3728
  7.5826  3.5431  2.2426  1.4209  1.4209  0.0918  0.9043  0.9043  0.7629  0.7629
  0.7748  0.6277  0.6277  0.3526  0.3526  0.4828  0.4828

 Free energy of the ion-electron system (eV)
  ---------------------------------------------------
  alpha Z        PSCENC =       518.71418952
  Ewald energy   TEWEN  =     60544.15491456
  -Hartree energ DENC   =    -80634.32484235
  -exchange      EXHF   =         0.00000000
  -V(xc)+E(xc)   XCENC  =       533.14117438
  PAW double counting   =     14543.38509688   -14303.96737629
  entropy T*S    EENTRO =        -0.00441088
  eigenvalues    EBANDS =     -2001.33651550
  atomic energy  EATOM  =     20412.42511142
  Solvation  Ediel_sol  =         0.00000000
[...]
 Tr[quadrupol]     -4051.139139

 energy correction for charged system         0.000000 eV
 dipol+quadrupol energy correction           -0.016462 eV
 added-field ion interaction         -9.508140 eV  (added to PSCEN)


  free energy =  -0.391789840179E+03  energy without entropy=  -0.391778032273E+03


--------------------------------------------------------------------------------------------------------




--------------------------------------- Iteration     55(   2)  ---------------------------------------


    POTLOK:  cpu time    0.4079: real time    0.5370
    SETDIJ:  cpu time    0.0260: real time    0.0257
    EDDIAG:  cpu time   13.7819: real time   13.7839
  RMM-DIIS:  cpu time  101.6955: real time  101.7139
    ORTHCH:  cpu time    2.9266: real time    2.9284
       DOS:  cpu time    0.0080: real time    0.0081
    CHARGE:  cpu time    2.9236: real time    2.9239
    MIXING:  cpu time    0.0100: real time    0.0094
    --------------------------------------------
      LOOP:  cpu time  121.7795: real time  121.9302

 eigenvalue-minimisations  : 17470
 total energy-change (2. order) :-0.1060836E-03  (-0.2686811E-04)
 number of electron     309.9999998 magnetization      42.0005137
 augmentation part       88.5882610 magnetization      26.8016467

 DIPCOR: dipole corrections for dipol
 direction  3 min pos   178,
 dipolmoment           0.000000      0.000000     -0.499912 electrons x Angstroem
 Tr[quadrupol]     -4051.137398

 energy correction for charged system         0.000000 eV
 dipol+quadrupol energy correction           -0.016637 eV
 added-field ion interaction         -9.558529 eV  (added to PSCEN)


 eigenvalues of (default mixing * dielectric matrix)
  average eigenvalue GAMMA=   0.3160
  0.3160

  free energy =  -0.391789946262E+03  energy without entropy=  -0.391778542597E+03


--------------------------------------------------------------------------------------------------------




--------------------------------------- Iteration     55(   3)  ---------------------------------------


    POTLOK:  cpu time    0.4419: real time    0.4460
    SETDIJ:  cpu time    0.0250: real time    0.0255
    EDDIAG:  cpu time   13.8219: real time   13.8241
  RMM-DIIS:  cpu time   72.1550: real time   72.1660
    ORTHCH:  cpu time    2.9286: real time    2.9290
       DOS:  cpu time    0.0080: real time    0.0082
    CHARGE:  cpu time    2.9226: real time    2.9229
    MIXING:  cpu time    0.0100: real time    0.0098
    --------------------------------------------
      LOOP:  cpu time   92.3130: real time   92.3315

 eigenvalue-minimisations  : 12222
 total energy-change (2. order) :-0.4431949E-04  (-0.5953573E-05)
 number of electron     309.9999998 magnetization      42.0005127
 augmentation part       88.5981883 magnetization      26.8117509

 DIPCOR: dipole corrections for dipol
 direction  3 min pos   177,
 dipolmoment           0.000000      0.000000     -0.496065 electrons x Angstroem
 Tr[quadrupol]     -4051.224774

 energy correction for charged system         0.000000 eV
 dipol+quadrupol energy correction           -0.016382 eV
 added-field ion interaction         -7.728973 eV  (added to PSCEN)


 eigenvalues of (default mixing * dielectric matrix)
  average eigenvalue GAMMA=   0.3921
  0.6608  0.1233

  free energy =  -0.391789990582E+03  energy without entropy=  -0.391778000207E+03


--------------------------------------------------------------------------------------------------------




--------------------------------------- Iteration     55(   4)  ---------------------------------------


    POTLOK:  cpu time    0.3200: real time    0.3651
    SETDIJ:  cpu time    0.0260: real time    0.0256
    EDDIAG:  cpu time   13.7919: real time   13.8109
  RMM-DIIS:  cpu time   54.2887: real time   54.3155
    ORTHCH:  cpu time    2.9256: real time    2.9261
       DOS:  cpu time    0.0080: real time    0.0083
    CHARGE:  cpu time    2.9256: real time    2.9261
    MIXING:  cpu time    0.0110: real time    0.0105
    --------------------------------------------
      LOOP:  cpu time   74.2967: real time   74.3880

 eigenvalue-minimisations  :  8964
 total energy-change (2. order) : 0.4084173E-04  (-0.1060339E-05)
 number of electron     309.9999998 magnetization      42.0005122
 augmentation part       88.5938883 magnetization      26.8074449

 DIPCOR: dipole corrections for dipol
 direction  3 min pos   177,
 dipolmoment           0.000000      0.000000     -0.497686 electrons x Angstroem
 Tr[quadrupol]     -4051.224231

 energy correction for charged system         0.000000 eV
 dipol+quadrupol energy correction           -0.016489 eV
 added-field ion interaction         -7.754231 eV  (added to PSCEN)


 eigenvalues of (default mixing * dielectric matrix)
  average eigenvalue GAMMA=   0.5001
  0.6882  0.6882  0.1239

  free energy =  -0.391789949740E+03  energy without entropy=  -0.391778192005E+03


--------------------------------------------------------------------------------------------------------




--------------------------------------- Iteration     55(   5)  ---------------------------------------


    POTLOK:  cpu time    0.3729: real time    0.4405
    SETDIJ:  cpu time    0.0260: real time    0.0256
    EDDIAG:  cpu time   13.8009: real time   13.8032
  RMM-DIIS:  cpu time   51.7751: real time   51.7825
    ORTHCH:  cpu time    2.9226: real time    2.9233
       DOS:  cpu time    0.0080: real time    0.0081
    CHARGE:  cpu time    2.9146: real time    2.9153
    MIXING:  cpu time    0.0110: real time    0.0107
    --------------------------------------------
      LOOP:  cpu time   71.8311: real time   71.9092

 eigenvalue-minimisations  :  8546
 total energy-change (2. order) :-0.1947902E-04  (-0.3519132E-06)
 number of electron     309.9999998 magnetization      42.0005119
 augmentation part       88.5938327 magnetization      26.8073962

 DIPCOR: dipole corrections for dipol
 direction  3 min pos   177,
 dipolmoment           0.000000      0.000000     -0.497734 electrons x Angstroem
 Tr[quadrupol]     -4051.224253

 energy correction for charged system         0.000000 eV
 dipol+quadrupol energy correction           -0.016492 eV
 added-field ion interaction         -7.754982 eV  (added to PSCEN)


 eigenvalues of (default mixing * dielectric matrix)
  average eigenvalue GAMMA=   0.5173
  0.1238  0.7243  0.7243  0.4966

  free energy =  -0.391789969219E+03  energy without entropy=  -0.391778209894E+03


--------------------------------------------------------------------------------------------------------




--------------------------------------- Iteration     55(   6)  ---------------------------------------


    POTLOK:  cpu time    0.4919: real time    0.4971
    SETDIJ:  cpu time    0.0260: real time    0.0256
    EDDIAG:  cpu time   13.8139: real time   13.8161
  RMM-DIIS:  cpu time   50.5903: real time   50.5979
    ORTHCH:  cpu time    2.9236: real time    2.9240
       DOS:  cpu time    0.0080: real time    0.0083
    CHARGE:  cpu time    2.9166: real time    2.9169
    MIXING:  cpu time    0.0110: real time    0.0112
    --------------------------------------------
      LOOP:  cpu time   70.7812: real time   70.7970

 eigenvalue-minimisations  :  8296
 total energy-change (2. order) :-0.1232621E-04  (-0.1707119E-06)
 number of electron     309.9999998 magnetization      42.0005116
 augmentation part       88.5939013 magnetization      26.8074329

 DIPCOR: dipole corrections for dipol
 direction  3 min pos   177,
 dipolmoment           0.000000      0.000000     -0.497658 electrons x Angstroem
 Tr[quadrupol]     -4051.224145

 energy correction for charged system         0.000000 eV
 dipol+quadrupol energy correction           -0.016487 eV
 added-field ion interaction         -7.753800 eV  (added to PSCEN)


 eigenvalues of (default mixing * dielectric matrix)
  average eigenvalue GAMMA=   0.5589
  0.8305  0.8305  0.1238  0.5888  0.4210

  free energy =  -0.391789981545E+03  energy without entropy=  -0.391778226489E+03


--------------------------------------------------------------------------------------------------------




--------------------------------------- Iteration     55(   7)  ---------------------------------------


    POTLOK:  cpu time    0.3759: real time    0.3810
    SETDIJ:  cpu time    0.0260: real time    0.0256
    EDDIAG:  cpu time   13.8469: real time   13.8490
  RMM-DIIS:  cpu time   49.1445: real time   49.1551
    ORTHCH:  cpu time    2.9296: real time    2.9303
       DOS:  cpu time    0.0080: real time    0.0082
    CHARGE:  cpu time    2.8856: real time    2.8860
    MIXING:  cpu time    0.0120: real time    0.0116
    --------------------------------------------
      LOOP:  cpu time   69.2285: real time   69.2469

 eigenvalue-minimisations  :  7291
 total energy-change (2. order) :-0.1063554E-04  (-0.7767409E-07)
 number of electron     309.9999998 magnetization      42.0005111
 augmentation part       88.5937836 magnetization      26.8073306

 DIPCOR: dipole corrections for dipol
 direction  3 min pos   177,
 dipolmoment           0.000000      0.000000     -0.497712 electrons x Angstroem
 Tr[quadrupol]     -4051.224288

 energy correction for charged system         0.000000 eV
 dipol+quadrupol energy correction           -0.016491 eV
 added-field ion interaction         -7.754640 eV  (added to PSCEN)


 eigenvalues of (default mixing * dielectric matrix)
  average eigenvalue GAMMA=   0.6909
  1.2029  1.2029  0.1238  0.6313  0.6313  0.3532

  free energy =  -0.391789992181E+03  energy without entropy=  -0.391778240764E+03


--------------------------------------------------------------------------------------------------------




--------------------------------------- Iteration     55(   8)  ---------------------------------------


    POTLOK:  cpu time    0.4449: real time    0.4486
    SETDIJ:  cpu time    0.0250: real time    0.0255
    EDDIAG:  cpu time   13.9049: real time   13.9071
  RMM-DIIS:  cpu time   48.8216: real time   48.8296
    ORTHCH:  cpu time    2.9336: real time    2.9337
       DOS:  cpu time    0.0070: real time    0.0078
    CHARGE:  cpu time    2.8816: real time    2.8816
    MIXING:  cpu time    0.0120: real time    0.0123
    --------------------------------------------
      LOOP:  cpu time   69.0305: real time   69.0462

 eigenvalue-minimisations  :  7024
 total energy-change (2. order) :-0.1421532E-04  (-0.4385917E-07)
 number of electron     309.9999998 magnetization      42.0005106
 augmentation part       88.5938248 magnetization      26.8073727

 DIPCOR: dipole corrections for dipol
 direction  3 min pos   177,
 dipolmoment           0.000000      0.000000     -0.497690 electrons x Angstroem
 Tr[quadrupol]     -4051.224413

 energy correction for charged system         0.000000 eV
 dipol+quadrupol energy correction           -0.016489 eV
 added-field ion interaction         -7.754302 eV  (added to PSCEN)


 eigenvalues of (default mixing * dielectric matrix)
  average eigenvalue GAMMA=   0.7611
  1.4342  1.4342  0.1238  0.6744  0.6581  0.6581  0.3447

  free energy =  -0.391790006396E+03  energy without entropy=  -0.391778251699E+03


--------------------------------------------------------------------------------------------------------




--------------------------------------- Iteration     55(   9)  ---------------------------------------


    POTLOK:  cpu time    0.3090: real time    0.3120
    SETDIJ:  cpu time    0.0260: real time    0.0254
    EDDIAG:  cpu time   13.8299: real time   13.8323
  RMM-DIIS:  cpu time   48.4956: real time   48.5066
    ORTHCH:  cpu time    2.9316: real time    2.9314
       DOS:  cpu time    0.0080: real time    0.0082
    CHARGE:  cpu time    2.8986: real time    2.8988
    MIXING:  cpu time    0.0130: real time    0.0130
    --------------------------------------------
      LOOP:  cpu time   68.5116: real time   68.5276

 eigenvalue-minimisations  :  6189
 total energy-change (2. order) :-0.1332043E-04  (-0.2299215E-07)
 number of electron     309.9999998 magnetization      42.0005101
 augmentation part       88.5938308 magnetization      26.8073645

 DIPCOR: dipole corrections for dipol
 direction  3 min pos   177,
 dipolmoment           0.000000      0.000000     -0.497706 electrons x Angstroem
 Tr[quadrupol]     -4051.224490

 energy correction for charged system         0.000000 eV
 dipol+quadrupol energy correction           -0.016490 eV
 added-field ion interaction         -7.754541 eV  (added to PSCEN)


 eigenvalues of (default mixing * dielectric matrix)
  average eigenvalue GAMMA=   0.8378
  1.6860  1.6860  0.1238  0.8183  0.7326  0.7326  0.5824  0.3406

  free energy =  -0.391790019717E+03  energy without entropy=  -0.391778265165E+03


--------------------------------------------------------------------------------------------------------




--------------------------------------- Iteration     55(  10)  ---------------------------------------


    POTLOK:  cpu time    0.4279: real time    0.4334
    SETDIJ:  cpu time    0.0260: real time    0.0256
    EDDIAG:  cpu time   13.8139: real time   13.8164
  RMM-DIIS:  cpu time   47.6198: real time   47.6280
    ORTHCH:  cpu time    2.9266: real time    2.9269
       DOS:  cpu time    0.0080: real time    0.0077
    CHARGE:  cpu time    2.8826: real time    2.8835
    MIXING:  cpu time    0.0140: real time    0.0136
    --------------------------------------------
      LOOP:  cpu time   67.7187: real time   67.7351

 eigenvalue-minimisations  :  5313
 total energy-change (2. order) :-0.1068532E-04  (-0.1589473E-07)
 number of electron     309.9999998 magnetization      42.0005098
 augmentation part       88.5937960 magnetization      26.8073410

 DIPCOR: dipole corrections for dipol
 direction  3 min pos   177,
 dipolmoment           0.000000      0.000000     -0.497721 electrons x Angstroem
 Tr[quadrupol]     -4051.224552

 energy correction for charged system         0.000000 eV
 dipol+quadrupol energy correction           -0.016491 eV
 added-field ion interaction         -7.754783 eV  (added to PSCEN)


 eigenvalues of (default mixing * dielectric matrix)
  average eigenvalue GAMMA=   0.8571
  2.2230  1.2406  1.2406  0.1238  0.6728  0.6728  0.6011  0.6011  0.3383

  free energy =  -0.391790030402E+03  energy without entropy=  -0.391778276841E+03


--------------------------------------------------------------------------------------------------------




--------------------------------------- Iteration     55(  11)  ---------------------------------------


    POTLOK:  cpu time    0.3160: real time    0.3211
    SETDIJ:  cpu time    0.0260: real time    0.0258
    EDDIAG:  cpu time   13.8539: real time   13.8555
  RMM-DIIS:  cpu time   45.9630: real time   45.9709
    ORTHCH:  cpu time    2.9256: real time    2.9258
       DOS:  cpu time    0.0080: real time    0.0081
    --------------------------------------------
      LOOP:  cpu time   63.0924: real time   63.1071

 eigenvalue-minimisations  :  4022
 total energy-change (2. order) :-0.5897058E-05  (-0.8072299E-08)
 number of electron     309.9999998 magnetization      42.0005098
 augmentation part       88.5937960 magnetization      26.8073410

 DIPCOR: dipole corrections for dipol
 direction  3 min pos   177,
 dipolmoment           0.000000      0.000000     -0.497731 electrons x Angstroem
 Tr[quadrupol]     -4051.224596

 energy correction for charged system         0.000000 eV
 dipol+quadrupol energy correction           -0.016492 eV
 added-field ion interaction         -7.754930 eV  (added to PSCEN)


  free energy =  -0.391790036299E+03  energy without entropy=  -0.391778282899E+03


--------------------------------------------------------------------------------------------------------




------------------------ aborting loop because EDIFF is reached ----------------------------------------


    CHARGE:  cpu time    2.8906: real time    2.8911
    FORLOC:  cpu time    0.0380: real time    0.0371
    FORNL :  cpu time   90.1753: real time   90.2825
    STRESS:  cpu time  113.2158: real time  113.3596
    FORCOR:  cpu time    0.2980: real time    0.2987
    FORHAR:  cpu time    0.0640: real time    0.0632
    MIXING:  cpu time    0.0140: real time    0.0144
    OFIELD:  cpu time    0.0000: real time    0.0001

  FORCE on cell =-STRESS in cart. coord.  units (eV):
  Direction    XX          YY          ZZ          XY          YZ          ZX
  --------------------------------------------------------------------------------------
  Alpha Z   532.65177   532.65177   532.65177
  Ewald   75487.64505 76308.63606-86848.32574     0.00004    -0.00001   772.95667
  Hartree 81006.31731 81336.42781-77332.82330    -0.00001    -0.00001   339.10167
  E(xc)   -1530.69513 -1531.56731 -1531.52251    -0.00000    -0.00000    -0.39724
  Local  ************************160554.26185     0.00001     0.00003 -1068.00928
  n-local -1108.71048 -1085.83481 -1106.69519     0.04330     0.02925    17.72019
  augment   864.12171   847.76699   850.57101     0.00013    -0.00003   -10.06596
  Kinetic  4881.69083  4817.09511  4881.05858    -0.13354     0.01415   -51.20385
  Fock        0.00000     0.00000     0.00000     0.00000     0.00000     0.00000
  -------------------------------------------------------------------------------------
  Total      -5.98180    -2.19722    -0.82354     0.00000     0.00000     0.10220
  in kB      -7.04835    -2.58898    -0.97037     0.00000     0.00000     0.12043
  external pressure =       -3.54 kB  Pullay stress =        0.00 kB



--------------------------------------------------------------------------------------------------------



  FREE ENERGIE OF THE ION-ELECTRON SYSTEM (eV)
  ---------------------------------------------------
  free  energy   TOTEN  =      -391.79003630 eV

  energy  without entropy=     -391.77828290  energy(sigma->0) =     -391.78611850
 
 d Force = 0.1138011E-04[-0.783E-06, 0.235E-04]  d Energy = 0.1592587E-03-0.148E-03
 d Force = 0.1392165E+01[ 0.139E+01, 0.139E+01]  d Ewald  = 0.1392165E+01 0.160E-08


--------------------------------------------------------------------------------------------------------


    POTLOK:  cpu time    0.3300: real time    0.3302


--------------------------------------------------------------------------------------------------------


 stress matrix after NEB project (eV)
     -5.98180      0.00000      0.10220
      0.00000     -2.19722      0.00000
      0.10220      0.00000     -0.82354
  FORCES: max atom, RMS     0.009474    0.005386
  FORCE total and by dimension    0.037315    0.008852
  Stress total and by dimension    6.427196    5.981804


--------------------------------------------------------------------------------------------------------


  
 reached required accuracy - stopping structural energy minimisation
     LOOP+:  cpu time 1124.8120: real time 1125.5918
    4ORBIT:  cpu time    0.0000: real time    0.0000

 total amount of memory used by VASP MPI-rank0   349890. kBytes
=======================================================================

   base      :      30000. kBytes
   nonl-proj :      46448. kBytes
   fftplans  :       6044. kBytes
   grid      :      14827. kBytes
   one-center:        373. kBytes
   wavefun   :     252198. kBytes
 
  
  
 General timing and accounting informations for this job:
 ========================================================
  
                  Total CPU time used (sec):    82747.562
                            User time (sec):    82704.791
                          System time (sec):       42.773
                         Elapsed time (sec):    82798.167
  
                   Maximum memory used (kb):      407252.
                   Average memory used (kb):           0.
  
                          Minor page faults:       149044
                          Major page faults:            1
                 Voluntary context switches:        12251
