[Molden Format]
[Title]

[GEOCONV]
energy
-1059.00022771
-1059.19819151
-1059.74200097
-1060.58691649
-1061.15301526
-1061.17380305
-1061.33204614
-1061.68414006
-1061.82933167
-1061.8651857
-1061.95340315
-1061.98145473
-1062.00439359
-1062.01173484
-1062.01189125
-1062.01595284
-1062.01695778
max-force
2.57362561464
2.46592240844
2.12891137013
1.39267345141
0.898527888903
0.847965093004
0.743683770737
0.454068827017
0.6745782626
0.425670939165
0.235791878715
0.180330471471
0.0867234480864
0.063960955981
0.0673107403391
0.0404194534599
0.0395197498094
rms-force
0.617872297768
0.595846247
0.528111014155
0.384397192781
0.31630655776
0.280176181834
0.248197143776
0.165103316622
0.199195982246
0.159073222846
0.0907940227008
0.079312959232
0.042208394737
0.0312279298261
0.0318708957402
0.018301589423
0.0198562382062
[GEOMETRIES] XYZ
135

O     9.997560  1.999520  2.074330
O     0.000000  0.000000  2.074330
O     0.000000  1.999520  4.093330
O     1.999520  1.999520  2.074330
O     3.999040  0.000000  2.074330
O     3.999040  1.999520  4.093330
O     5.998560  1.999520  2.074330
O     7.998070  0.000000  2.074330
O     7.998070  1.999520  4.093330
O     9.997560  5.998550  2.074330
O     0.000000  3.999030  2.074330
O     0.000000  5.998550  4.093330
O     1.999520  5.998550  2.074330
O     3.999040  3.999030  2.074330
O     3.999040  5.998550  4.093330
O     5.998560  5.998550  2.074330
O     7.998070  3.999030  2.074330
O     7.998070  5.998550  4.093330
O     9.997560  9.997570  2.074330
O     0.000000  7.998060  2.074330
O     0.000000  9.997570  4.093330
O     1.999520  9.997570  2.074330
O     3.999040  7.998060  2.074330
O     3.999040  9.997570  4.093330
O     5.998560  9.997570  2.074330
O     7.998070  7.998060  2.074330
O     7.998070  9.997570  4.093330
O     9.997560  1.999520  6.291820
O     0.000000  0.000000  6.291820
O     0.000000  1.999520  8.310810
O     1.999520  1.999520  6.291820
O     3.999040  0.000000  6.291820
O     3.999040  1.999520  8.310810
O     5.998560  1.999520  6.291820
O     7.998070  0.000000  6.291820
O     7.998070  1.999520  8.310810
O     9.997560  5.998550  6.291820
O     0.000000  3.999030  6.291820
O     0.000000  5.998550  8.310810
O     1.999520  5.998550  6.291820
O     3.999040  3.999030  6.291820
O     3.999040  5.998550  8.310810
O     5.998560  5.998550  6.291820
O     7.998070  3.999030  6.291820
O     7.998070  5.998550  8.310810
O     9.997560  9.997570  6.291820
O     0.000000  7.998060  6.291820
O     0.000000  9.997570  8.310810
O     1.999520  9.997570  6.291820
O     3.999040  7.998060  6.291820
O     3.999040  9.997570  8.310810
O     5.998560  9.997570  6.291820
O     7.998070  7.998060  6.291820
O     7.998070  9.997570  8.310810
O     9.997560  1.999520 10.509290
O     0.000000  0.000000 10.509290
O     0.000000  1.999520 12.528280
O     1.999520  1.999520 10.509290
O     3.999040  0.000000 10.509290
O     3.999040  1.999520 12.528280
O     5.998560  1.999520 10.509290
O     7.998070  0.000000 10.509290
O     7.998070  1.999520 12.528280
O     9.997560  5.998550 10.509290
O     0.000000  3.999030 10.509290
O     0.000000  5.998550 12.528280
O     1.999520  5.998550 10.509290
O     3.999040  3.999030 10.509290
O     3.999040  5.998550 12.528280
O     5.998560  5.998550 10.509290
O     7.998070  3.999030 10.509290
O     7.998070  5.998550 12.528280
O     9.997560  9.997570 10.509290
O     0.000000  7.998060 10.509290
O     0.000000  9.997570 12.528280
O     1.999520  9.997570 10.509290
O     3.999040  7.998060 10.509290
O     3.999040  9.997570 12.528280
O     5.998560  9.997570 10.509290
O     7.998070  7.998060 10.509290
O     7.998070  9.997570 12.528280
Ti_pv  0.000000  1.999520  2.273490
Ti_pv  3.999040  1.999520  2.273490
Ti_pv  7.998070  1.999520  2.273490
Ti_pv  0.000000  5.998550  2.273490
Ti_pv  3.999040  5.998550  2.273490
Ti_pv  7.998070  5.998550  2.273490
Ti_pv  0.000000  9.997570  2.273490
Ti_pv  3.999040  9.997570  2.273490
Ti_pv  7.998070  9.997570  2.273490
Ti_pv  0.000000  1.999520  6.490970
Ti_pv  3.999040  1.999520  6.490970
Ti_pv  7.998070  1.999520  6.490970
Ti_pv  0.000000  5.998550  6.490970
Ti_pv  3.999040  5.998550  6.490970
Ti_pv  7.998070  5.998550  6.490970
Ti_pv  0.000000  9.997570  6.490970
Ti_pv  3.999040  9.997570  6.490970
Ti_pv  7.998070  9.997570  6.490970
Ti_pv  0.000000  1.999520 10.708440
Ti_pv  3.999040  1.999520 10.708440
Ti_pv  7.998070  1.999520 10.708440
Ti_pv  0.000000  5.998550 10.708440
Ti_pv  3.999040  5.998550 10.708440
Ti_pv  7.998070  5.998550 10.708440
Ti_pv  0.000000  9.997570 10.708440
Ti_pv  3.999040  9.997570 10.708440
Ti_pv  7.998070  9.997570 10.708440
Ba_sv  9.997560  0.000000  0.087250
Ba_sv  1.999520  0.000000  0.087250
Ba_sv  5.998560  0.000000  0.087250
Ba_sv  9.997560  3.999030  0.087250
Ba_sv  1.999520  3.999030  0.087250
Ba_sv  5.998560  3.999030  0.087250
Ba_sv  9.997560  7.998060  0.087250
Ba_sv  1.999520  7.998060  0.087250
Ba_sv  5.998560  7.998060  0.087250
Ba_sv  9.997560  0.000000  4.304740
Ba_sv  1.999520  0.000000  4.304740
Ba_sv  5.998560  0.000000  4.304740
Ba_sv  9.997560  3.999030  4.304740
Ba_sv  1.999520  3.999030  4.304740
Ba_sv  5.998560  3.999030  4.304740
Ba_sv  9.997560  7.998060  4.304740
Ba_sv  1.999520  7.998060  4.304740
Ba_sv  5.998560  7.998060  4.304740
Ba_sv  9.997560  0.000000  8.522220
Ba_sv  1.999520  0.000000  8.522220
Ba_sv  5.998560  0.000000  8.522220
Ba_sv  9.997560  3.999030  8.522220
Ba_sv  1.999520  3.999030  8.522220
Ba_sv  5.998560  3.999030  8.522220
Ba_sv  9.997560  7.998060  8.522220
Ba_sv  1.999520  7.998060  8.522220
Ba_sv  5.998560  7.998060  8.522220
135

O     9.996610  1.999520  2.074220
O    -0.001300 -0.000000  2.074210
O    -0.000740  1.999520  4.091350
O     1.997900  1.999520  2.074630
O     3.999050 -0.000000  2.074340
O     3.999080  1.999520  4.093270
O     5.997940  1.999520  2.074300
O     7.998210 -0.000000  2.074210
O     7.998400  1.999520  4.093990
O     9.996610  5.998550  2.074220
O    -0.001300  3.999030  2.074210
O    -0.000740  5.998550  4.091350
O     1.997900  5.998550  2.074630
O     3.999050  3.999030  2.074340
O     3.999080  5.998550  4.093270
O     5.997940  5.998550  2.074300
O     7.998210  3.999030  2.074210
O     7.998400  5.998550  4.093990
O     9.996610  9.997570  2.074220
O    -0.001300  7.998060  2.074210
O    -0.000740  9.997570  4.091350
O     1.997900  9.997570  2.074630
O     3.999050  7.998060  2.074340
O     3.999080  9.997570  4.093270
O     5.997940  9.997570  2.074300
O     7.998210  7.998060  2.074210
O     7.998400  9.997570  4.093990
O     9.996610  1.999520  6.291710
O    -0.001300 -0.000000  6.291700
O    -0.000740  1.999520  8.308830
O     1.997900  1.999520  6.292110
O     3.999050 -0.000000  6.291830
O     3.999080  1.999520  8.310750
O     5.997940  1.999520  6.291790
O     7.998210 -0.000000  6.291690
O     7.998400  1.999520  8.311470
O     9.996610  5.998550  6.291710
O    -0.001300  3.999030  6.291700
O    -0.000740  5.998550  8.308830
O     1.997900  5.998550  6.292110
O     3.999050  3.999030  6.291830
O     3.999080  5.998550  8.310750
O     5.997940  5.998550  6.291790
O     7.998210  3.999030  6.291690
O     7.998400  5.998550  8.311470
O     9.996610  9.997570  6.291710
O    -0.001300  7.998060  6.291700
O    -0.000740  9.997570  8.308830
O     1.997900  9.997570  6.292110
O     3.999050  7.998060  6.291830
O     3.999080  9.997570  8.310750
O     5.997940  9.997570  6.291790
O     7.998210  7.998060  6.291690
O     7.998400  9.997570  8.311470
O     9.996610  1.999520 10.509190
O    -0.001300 -0.000000 10.509180
O    -0.000740  1.999520 12.526300
O     1.997900  1.999520 10.509590
O     3.999050 -0.000000 10.509310
O     3.999080  1.999520 12.528230
O     5.997940  1.999520 10.509260
O     7.998210 -0.000000 10.509170
O     7.998400  1.999520 12.528950
O     9.996610  5.998550 10.509190
O    -0.001300  3.999030 10.509180
O    -0.000740  5.998550 12.526300
O     1.997900  5.998550 10.509590
O     3.999050  3.999030 10.509310
O     3.999080  5.998550 12.528230
O     5.997940  5.998550 10.509260
O     7.998210  3.999030 10.509170
O     7.998400  5.998550 12.528950
O     9.996610  9.997570 10.509190
O    -0.001300  7.998060 10.509180
O    -0.000740  9.997570 12.526300
O     1.997900  9.997570 10.509590
O     3.999050  7.998060 10.509310
O     3.999080  9.997570 12.528230
O     5.997940  9.997570 10.509260
O     7.998210  7.998060 10.509170
O     7.998400  9.997570 12.528950
Ti_pv  0.004630  1.999520  2.275280
Ti_pv  3.999590  1.999520  2.273590
Ti_pv  8.000140  1.999520  2.272910
Ti_pv  0.004630  5.998550  2.275280
Ti_pv  3.999590  5.998550  2.273590
Ti_pv  8.000140  5.998550  2.272910
Ti_pv  0.004630  9.997570  2.275280
Ti_pv  3.999590  9.997570  2.273590
Ti_pv  8.000140  9.997570  2.272910
Ti_pv  0.004630  1.999520  6.492750
Ti_pv  3.999590  1.999520  6.491060
Ti_pv  8.000140  1.999520  6.490380
Ti_pv  0.004630  5.998550  6.492750
Ti_pv  3.999590  5.998550  6.491060
Ti_pv  8.000140  5.998550  6.490380
Ti_pv  0.004630  9.997570  6.492750
Ti_pv  3.999590  9.997570  6.491060
Ti_pv  8.000140  9.997570  6.490380
Ti_pv  0.004630  1.999520 10.710230
Ti_pv  3.999590  1.999520 10.708540
Ti_pv  8.000140  1.999520 10.707860
Ti_pv  0.004630  5.998550 10.710230
Ti_pv  3.999590  5.998550 10.708540
Ti_pv  8.000140  5.998550 10.707860
Ti_pv  0.004630  9.997570 10.710230
Ti_pv  3.999590  9.997570 10.708540
Ti_pv  8.000140  9.997570 10.707860
Ba_sv  9.996610 -0.000000  0.087460
Ba_sv  1.998110 -0.000000  0.087170
Ba_sv  5.998390 -0.000000  0.087260
Ba_sv  9.996610  3.999030  0.087460
Ba_sv  1.998110  3.999030  0.087170
Ba_sv  5.998390  3.999030  0.087260
Ba_sv  9.996610  7.998060  0.087460
Ba_sv  1.998110  7.998060  0.087170
Ba_sv  5.998390  7.998060  0.087260
Ba_sv  9.996610 -0.000000  4.304950
Ba_sv  1.998110 -0.000000  4.304660
Ba_sv  5.998390 -0.000000  4.304750
Ba_sv  9.996610  3.999030  4.304950
Ba_sv  1.998110  3.999030  4.304660
Ba_sv  5.998390  3.999030  4.304750
Ba_sv  9.996610  7.998060  4.304950
Ba_sv  1.998110  7.998060  4.304660
Ba_sv  5.998390  7.998060  4.304750
Ba_sv  9.996610 -0.000000  8.522430
Ba_sv  1.998110 -0.000000  8.522140
Ba_sv  5.998390 -0.000000  8.522220
Ba_sv  9.996610  3.999030  8.522430
Ba_sv  1.998110  3.999030  8.522140
Ba_sv  5.998390  3.999030  8.522220
Ba_sv  9.996610  7.998060  8.522430
Ba_sv  1.998110  7.998060  8.522140
Ba_sv  5.998390  7.998060  8.522220
135

O     9.993750  1.999520  2.073910
O    -0.005190 -0.000000  2.073870
O    -0.002980  1.999520  4.085420
O     1.993030  1.999520  2.075510
O     3.999080 -0.000000  2.074390
O     3.999210  1.999520  4.093110
O     5.996080  1.999520  2.074210
O     7.998610 -0.000000  2.073830
O     7.999370  1.999520  4.095990
O     9.993750  5.998550  2.073910
O    -0.005190  3.999030  2.073870
O    -0.002980  5.998550  4.085420
O     1.993030  5.998550  2.075510
O     3.999080  3.999030  2.074390
O     3.999210  5.998550  4.093110
O     5.996080  5.998550  2.074210
O     7.998610  3.999030  2.073830
O     7.999370  5.998550  4.095990
O     9.993750  9.997570  2.073910
O    -0.005190  7.998060  2.073870
O    -0.002980  9.997570  4.085420
O     1.993030  9.997570  2.075510
O     3.999080  7.998060  2.074390
O     3.999210  9.997570  4.093110
O     5.996080  9.997570  2.074210
O     7.998610  7.998060  2.073830
O     7.999370  9.997570  4.095990
O     9.993750  1.999520  6.291390
O    -0.005190 -0.000000  6.291360
O    -0.002980  1.999520  8.302900
O     1.993030  1.999520  6.293000
O     3.999080 -0.000000  6.291870
O     3.999210  1.999520  8.310580
O     5.996080  1.999520  6.291700
O     7.998610 -0.000000  6.291320
O     7.999370  1.999520  8.313460
O     9.993750  5.998550  6.291390
O    -0.005190  3.999030  6.291360
O    -0.002980  5.998550  8.302900
O     1.993030  5.998550  6.293000
O     3.999080  3.999030  6.291870
O     3.999210  5.998550  8.310580
O     5.996080  5.998550  6.291700
O     7.998610  3.999030  6.291320
O     7.999370  5.998550  8.313460
O     9.993750  9.997570  6.291390
O    -0.005190  7.998060  6.291360
O    -0.002980  9.997570  8.302900
O     1.993030  9.997570  6.293000
O     3.999080  7.998060  6.291870
O     3.999210  9.997570  8.310580
O     5.996080  9.997570  6.291700
O     7.998610  7.998060  6.291320
O     7.999370  9.997570  8.313460
O     9.993750  1.999520 10.508870
O    -0.005190 -0.000000 10.508830
O    -0.002980  1.999520 12.520370
O     1.993030  1.999520 10.510480
O     3.999080 -0.000000 10.509350
O     3.999210  1.999520 12.528060
O     5.996080  1.999520 10.509170
O     7.998610 -0.000000 10.508800
O     7.999370  1.999520 12.530940
O     9.993750  5.998550 10.508870
O    -0.005190  3.999030 10.508830
O    -0.002980  5.998550 12.520370
O     1.993030  5.998550 10.510480
O     3.999080  3.999030 10.509350
O     3.999210  5.998550 12.528060
O     5.996080  5.998550 10.509170
O     7.998610  3.999030 10.508800
O     7.999370  5.998550 12.530940
O     9.993750  9.997570 10.508870
O    -0.005190  7.998060 10.508830
O    -0.002980  9.997570 12.520370
O     1.993030  9.997570 10.510480
O     3.999080  7.998060 10.509350
O     3.999210  9.997570 12.528060
O     5.996080  9.997570 10.509170
O     7.998610  7.998060 10.508800
O     7.999370  9.997570 12.530940
Ti_pv  0.018540  1.999520  2.280630
Ti_pv  4.001240  1.999520  2.273870
Ti_pv  8.006340  1.999520  2.271150
Ti_pv  0.018540  5.998550  2.280630
Ti_pv  4.001240  5.998550  2.273870
Ti_pv  8.006340  5.998550  2.271150
Ti_pv  0.018540  9.997570  2.280630
Ti_pv  4.001240  9.997570  2.273870
Ti_pv  8.006340  9.997570  2.271150
Ti_pv  0.018540  1.999520  6.498100
Ti_pv  4.001240  1.999520  6.491350
Ti_pv  8.006340  1.999520  6.488630
Ti_pv  0.018540  5.998550  6.498100
Ti_pv  4.001240  5.998550  6.491350
Ti_pv  8.006340  5.998550  6.488630
Ti_pv  0.018540  9.997570  6.498100
Ti_pv  4.001240  9.997570  6.491350
Ti_pv  8.006340  9.997570  6.488630
Ti_pv  0.018540  1.999520 10.715580
Ti_pv  4.001240  1.999520 10.708820
Ti_pv  8.006340  1.999520 10.706100
Ti_pv  0.018540  5.998550 10.715580
Ti_pv  4.001240  5.998550 10.708820
Ti_pv  8.006340  5.998550 10.706100
Ti_pv  0.018540  9.997570 10.715580
Ti_pv  4.001240  9.997570 10.708820
Ti_pv  8.006340  9.997570 10.706100
Ba_sv  9.993740 -0.000000  0.088090
Ba_sv  1.993880 -0.000000  0.086940
Ba_sv  5.997890 -0.000000  0.087280
Ba_sv  9.993740  3.999030  0.088090
Ba_sv  1.993880  3.999030  0.086940
Ba_sv  5.997890  3.999030  0.087280
Ba_sv  9.993740  7.998060  0.088090
Ba_sv  1.993880  7.998060  0.086940
Ba_sv  5.997890  7.998060  0.087280
Ba_sv  9.993740 -0.000000  4.305580
Ba_sv  1.993880 -0.000000  4.304430
Ba_sv  5.997890 -0.000000  4.304770
Ba_sv  9.993740  3.999030  4.305580
Ba_sv  1.993880  3.999030  4.304430
Ba_sv  5.997890  3.999030  4.304770
Ba_sv  9.993740  7.998060  4.305580
Ba_sv  1.993880  7.998060  4.304430
Ba_sv  5.997890  7.998060  4.304770
Ba_sv  9.993740 -0.000000  8.523050
Ba_sv  1.993880 -0.000000  8.521910
Ba_sv  5.997890 -0.000000  8.522250
Ba_sv  9.993740  3.999030  8.523050
Ba_sv  1.993880  3.999030  8.521910
Ba_sv  5.997890  3.999030  8.522250
Ba_sv  9.993740  7.998060  8.523050
Ba_sv  1.993880  7.998060  8.521910
Ba_sv  5.997890  7.998060  8.522250
135

O     9.988040  1.999520  2.073270
O    -0.012970 -0.000000  2.073180
O    -0.007450  1.999520  4.073560
O     1.983290  1.999520  2.077290
O     3.999150 -0.000000  2.074470
O     3.999480  1.999520  4.092770
O     5.992360  1.999520  2.074030
O     7.999410 -0.000000  2.073090
O     8.001320  1.999520  4.099970
O     9.988040  5.998550  2.073270
O    -0.012970  3.999030  2.073180
O    -0.007450  5.998550  4.073560
O     1.983290  5.998550  2.077290
O     3.999150  3.999030  2.074470
O     3.999480  5.998550  4.092770
O     5.992360  5.998550  2.074030
O     7.999410  3.999030  2.073090
O     8.001320  5.998550  4.099970
O     9.988040  9.997570  2.073270
O    -0.012970  7.998060  2.073180
O    -0.007450  9.997570  4.073560
O     1.983290  9.997570  2.077290
O     3.999150  7.998060  2.074470
O     3.999480  9.997570  4.092770
O     5.992360  9.997570  2.074030
O     7.999410  7.998060  2.073090
O     8.001320  9.997570  4.099970
O     9.988040  1.999520  6.290760
O    -0.012970 -0.000000  6.290670
O    -0.007450  1.999520  8.291040
O     1.983290  1.999520  6.294780
O     3.999150 -0.000000  6.291960
O     3.999480  1.999520  8.310250
O     5.992360  1.999520  6.291520
O     7.999410 -0.000000  6.290580
O     8.001320  1.999520  8.317450
O     9.988040  5.998550  6.290760
O    -0.012970  3.999030  6.290670
O    -0.007450  5.998550  8.291040
O     1.983290  5.998550  6.294780
O     3.999150  3.999030  6.291960
O     3.999480  5.998550  8.310250
O     5.992360  5.998550  6.291520
O     7.999410  3.999030  6.290580
O     8.001320  5.998550  8.317450
O     9.988040  9.997570  6.290760
O    -0.012970  7.998060  6.290670
O    -0.007450  9.997570  8.291040
O     1.983290  9.997570  6.294780
O     3.999150  7.998060  6.291960
O     3.999480  9.997570  8.310250
O     5.992360  9.997570  6.291520
O     7.999410  7.998060  6.290580
O     8.001320  9.997570  8.317450
O     9.988040  1.999520 10.508230
O    -0.012970 -0.000000 10.508140
O    -0.007450  1.999520 12.508510
O     1.983290  1.999520 10.512250
O     3.999150 -0.000000 10.509430
O     3.999480  1.999520 12.527720
O     5.992360  1.999520 10.509000
O     7.999410 -0.000000 10.508050
O     8.001320  1.999520 12.534920
O     9.988040  5.998550 10.508230
O    -0.012970  3.999030 10.508140
O    -0.007450  5.998550 12.508510
O     1.983290  5.998550 10.512250
O     3.999150  3.999030 10.509430
O     3.999480  5.998550 12.527720
O     5.992360  5.998550 10.509000
O     7.999410  3.999030 10.508050
O     8.001320  5.998550 12.534920
O     9.988040  9.997570 10.508230
O    -0.012970  7.998060 10.508140
O    -0.007450  9.997570 12.508510
O     1.983290  9.997570 10.512250
O     3.999150  7.998060 10.509430
O     3.999480  9.997570 12.527720
O     5.992360  9.997570 10.509000
O     7.999410  7.998060 10.508050
O     8.001320  9.997570 12.534920
Ti_pv  0.046350  1.999520  2.291330
Ti_pv  4.004560  1.999520  2.274440
Ti_pv  8.018750  1.999520  2.267640
Ti_pv  0.046350  5.998550  2.291330
Ti_pv  4.004560  5.998550  2.274440
Ti_pv  8.018750  5.998550  2.267640
Ti_pv  0.046350  9.997570  2.291330
Ti_pv  4.004560  9.997570  2.274440
Ti_pv  8.018750  9.997570  2.267640
Ti_pv  0.046350  1.999520  6.508810
Ti_pv  4.004560  1.999520  6.491910
Ti_pv  8.018750  1.999520  6.485120
Ti_pv  0.046350  5.998550  6.508810
Ti_pv  4.004560  5.998550  6.491910
Ti_pv  8.018750  5.998550  6.485120
Ti_pv  0.046350  9.997570  6.508810
Ti_pv  4.004560  9.997570  6.491910
Ti_pv  8.018750  9.997570  6.485120
Ti_pv  0.046350  1.999520 10.726280
Ti_pv  4.004560  1.999520 10.709390
Ti_pv  8.018750  1.999520 10.702590
Ti_pv  0.046350  5.998550 10.726280
Ti_pv  4.004560  5.998550 10.709390
Ti_pv  8.018750  5.998550 10.702590
Ti_pv  0.046350  9.997570 10.726280
Ti_pv  4.004560  9.997570 10.709390
Ti_pv  8.018750  9.997570 10.702590
Ba_sv  9.988010 -0.000000  0.089350
Ba_sv  1.985430 -0.000000  0.086480
Ba_sv  5.996880 -0.000000  0.087330
Ba_sv  9.988010  3.999030  0.089350
Ba_sv  1.985430  3.999030  0.086480
Ba_sv  5.996880  3.999030  0.087330
Ba_sv  9.988010  7.998060  0.089350
Ba_sv  1.985430  7.998060  0.086480
Ba_sv  5.996880  7.998060  0.087330
Ba_sv  9.988010 -0.000000  4.306840
Ba_sv  1.985430 -0.000000  4.303970
Ba_sv  5.996880 -0.000000  4.304820
Ba_sv  9.988010  3.999030  4.306840
Ba_sv  1.985430  3.999030  4.303970
Ba_sv  5.996880  3.999030  4.304820
Ba_sv  9.988010  7.998060  4.306840
Ba_sv  1.985430  7.998060  4.303970
Ba_sv  5.996880  7.998060  4.304820
Ba_sv  9.988010 -0.000000  8.524310
Ba_sv  1.985430 -0.000000  8.521440
Ba_sv  5.996880 -0.000000  8.522290
Ba_sv  9.988010  3.999030  8.524310
Ba_sv  1.985430  3.999030  8.521440
Ba_sv  5.996880  3.999030  8.522290
Ba_sv  9.988010  7.998060  8.524310
Ba_sv  1.985430  7.998060  8.521440
Ba_sv  5.996880  7.998060  8.522290
135

O     9.976610  1.999520  2.072000
O    -0.028530 -0.000000  2.071800
O    -0.016390  1.999520  4.049840
O     1.963820  1.999520  2.080840
O     3.999290 -0.000000  2.074640
O     4.000000  1.999520  4.092100
O     5.984920  1.999520  2.073670
O     8.001020 -0.000000  2.071600
O     8.005210  1.999520  4.107940
O     9.976610  5.998550  2.072000
O    -0.028530  3.999030  2.071800
O    -0.016390  5.998550  4.049840
O     1.963820  5.998550  2.080840
O     3.999290  3.999030  2.074640
O     4.000000  5.998550  4.092100
O     5.984920  5.998550  2.073670
O     8.001020  3.999030  2.071600
O     8.005210  5.998550  4.107940
O     9.976610  9.997570  2.072000
O    -0.028530  7.998060  2.071800
O    -0.016390  9.997570  4.049840
O     1.963820  9.997570  2.080840
O     3.999290  7.998060  2.074640
O     4.000000  9.997570  4.092100
O     5.984920  9.997570  2.073670
O     8.001020  7.998060  2.071600
O     8.005210  9.997570  4.107940
O     9.976610  1.999520  6.289490
O    -0.028530 -0.000000  6.289290
O    -0.016390  1.999520  8.267320
O     1.963820  1.999520  6.298330
O     3.999290 -0.000000  6.292120
O     4.000000  1.999520  8.309570
O     5.984920  1.999520  6.291160
O     8.001020 -0.000000  6.289090
O     8.005210  1.999520  8.325420
O     9.976610  5.998550  6.289490
O    -0.028530  3.999030  6.289290
O    -0.016390  5.998550  8.267320
O     1.963820  5.998550  6.298330
O     3.999290  3.999030  6.292120
O     4.000000  5.998550  8.309570
O     5.984920  5.998550  6.291160
O     8.001020  3.999030  6.289090
O     8.005210  5.998550  8.325420
O     9.976610  9.997570  6.289490
O    -0.028530  7.998060  6.289290
O    -0.016390  9.997570  8.267320
O     1.963820  9.997570  6.298330
O     3.999290  7.998060  6.292120
O     4.000000  9.997570  8.309570
O     5.984920  9.997570  6.291160
O     8.001020  7.998060  6.289090
O     8.005210  9.997570  8.325420
O     9.976610  1.999520 10.506960
O    -0.028530 -0.000000 10.506760
O    -0.016390  1.999520 12.484790
O     1.963820  1.999520 10.515810
O     3.999290 -0.000000 10.509600
O     4.000000  1.999520 12.527050
O     5.984920  1.999520 10.508640
O     8.001020 -0.000000 10.506570
O     8.005210  1.999520 12.542890
O     9.976610  5.998550 10.506960
O    -0.028530  3.999030 10.506760
O    -0.016390  5.998550 12.484790
O     1.963820  5.998550 10.515810
O     3.999290  3.999030 10.509600
O     4.000000  5.998550 12.527050
O     5.984920  5.998550 10.508640
O     8.001020  3.999030 10.506570
O     8.005210  5.998550 12.542890
O     9.976610  9.997570 10.506960
O    -0.028530  7.998060 10.506760
O    -0.016390  9.997570 12.484790
O     1.963820  9.997570 10.515810
O     3.999290  7.998060 10.509600
O     4.000000  9.997570 12.527050
O     5.984920  9.997570 10.508640
O     8.001020  7.998060 10.506570
O     8.005210  9.997570 12.542890
Ti_pv  0.101970  1.999520  2.312740
Ti_pv  4.011180  1.999520  2.275570
Ti_pv  8.043560  1.999520  2.260620
Ti_pv  0.101970  5.998550  2.312740
Ti_pv  4.011180  5.998550  2.275570
Ti_pv  8.043560  5.998550  2.260620
Ti_pv  0.101970  9.997570  2.312740
Ti_pv  4.011180  9.997570  2.275570
Ti_pv  8.043560  9.997570  2.260620
Ti_pv  0.101970  1.999520  6.530210
Ti_pv  4.011180  1.999520  6.493050
Ti_pv  8.043560  1.999520  6.478090
Ti_pv  0.101970  5.998550  6.530210
Ti_pv  4.011180  5.998550  6.493050
Ti_pv  8.043560  5.998550  6.478090
Ti_pv  0.101970  9.997570  6.530210
Ti_pv  4.011180  9.997570  6.493050
Ti_pv  8.043560  9.997570  6.478090
Ti_pv  0.101970  1.999520 10.747690
Ti_pv  4.011180  1.999520 10.710520
Ti_pv  8.043560  1.999520 10.695570
Ti_pv  0.101970  5.998550 10.747690
Ti_pv  4.011180  5.998550 10.710520
Ti_pv  8.043560  5.998550 10.695570
Ti_pv  0.101970  9.997570 10.747690
Ti_pv  4.011180  9.997570 10.710520
Ti_pv  8.043560  9.997570 10.695570
Ba_sv  9.976550 -0.000000  0.091870
Ba_sv  1.968530 -0.000000  0.085550
Ba_sv  5.994870 -0.000000  0.087420
Ba_sv  9.976550  3.999030  0.091870
Ba_sv  1.968530  3.999030  0.085550
Ba_sv  5.994870  3.999030  0.087420
Ba_sv  9.976550  7.998060  0.091870
Ba_sv  1.968530  7.998060  0.085550
Ba_sv  5.994870  7.998060  0.087420
Ba_sv  9.976550 -0.000000  4.309360
Ba_sv  1.968530 -0.000000  4.303040
Ba_sv  5.994870 -0.000000  4.304910
Ba_sv  9.976550  3.999030  4.309360
Ba_sv  1.968530  3.999030  4.303040
Ba_sv  5.994870  3.999030  4.304910
Ba_sv  9.976550  7.998060  4.309360
Ba_sv  1.968530  7.998060  4.303040
Ba_sv  5.994870  7.998060  4.304910
Ba_sv  9.976550 -0.000000  8.526830
Ba_sv  1.968530 -0.000000  8.520520
Ba_sv  5.994870 -0.000000  8.522380
Ba_sv  9.976550  3.999030  8.526830
Ba_sv  1.968530  3.999030  8.520520
Ba_sv  5.994870  3.999030  8.522380
Ba_sv  9.976550  7.998060  8.526830
Ba_sv  1.968530  7.998060  8.520520
Ba_sv  5.994870  7.998060  8.522380
135

O     9.978560  1.999520  2.072220
O    -0.025880 -0.000000  2.072040
O    -0.014860  1.999520  4.053890
O     1.967140  1.999520  2.080240
O     3.999260 -0.000000  2.074610
O     3.999910  1.999520  4.092210
O     5.986180  1.999520  2.073740
O     8.000750 -0.000000  2.071860
O     8.004550  1.999520  4.106580
O     9.978560  5.998550  2.072220
O    -0.025880  3.999030  2.072040
O    -0.014860  5.998550  4.053890
O     1.967140  5.998550  2.080240
O     3.999260  3.999030  2.074610
O     3.999910  5.998550  4.092210
O     5.986180  5.998550  2.073740
O     8.000750  3.999030  2.071860
O     8.004550  5.998550  4.106580
O     9.978560  9.997570  2.072220
O    -0.025880  7.998060  2.072040
O    -0.014860  9.997570  4.053890
O     1.967140  9.997570  2.080240
O     3.999260  7.998060  2.074610
O     3.999910  9.997570  4.092210
O     5.986180  9.997570  2.073740
O     8.000750  7.998060  2.071860
O     8.004550  9.997570  4.106580
O     9.978560  1.999520  6.289700
O    -0.025880 -0.000000  6.289520
O    -0.014860  1.999520  8.271360
O     1.967140  1.999520  6.297730
O     3.999260 -0.000000  6.292100
O     3.999910  1.999520  8.309690
O     5.986180  1.999520  6.291220
O     8.000750 -0.000000  6.289350
O     8.004550  1.999520  8.324060
O     9.978560  5.998550  6.289700
O    -0.025880  3.999030  6.289520
O    -0.014860  5.998550  8.271360
O     1.967140  5.998550  6.297730
O     3.999260  3.999030  6.292100
O     3.999910  5.998550  8.309690
O     5.986180  5.998550  6.291220
O     8.000750  3.999030  6.289350
O     8.004550  5.998550  8.324060
O     9.978560  9.997570  6.289700
O    -0.025880  7.998060  6.289520
O    -0.014860  9.997570  8.271360
O     1.967140  9.997570  6.297730
O     3.999260  7.998060  6.292100
O     3.999910  9.997570  8.309690
O     5.986180  9.997570  6.291220
O     8.000750  7.998060  6.289350
O     8.004550  9.997570  8.324060
O     9.978560  1.999520 10.507180
O    -0.025880 -0.000000 10.507000
O    -0.014860  1.999520 12.488840
O     1.967140  1.999520 10.515200
O     3.999260 -0.000000 10.509570
O     3.999910  1.999520 12.527160
O     5.986180  1.999520 10.508700
O     8.000750 -0.000000 10.506820
O     8.004550  1.999520 12.541530
O     9.978560  5.998550 10.507180
O    -0.025880  3.999030 10.507000
O    -0.014860  5.998550 12.488840
O     1.967140  5.998550 10.515200
O     3.999260  3.999030 10.509570
O     3.999910  5.998550 12.527160
O     5.986180  5.998550 10.508700
O     8.000750  3.999030 10.506820
O     8.004550  5.998550 12.541530
O     9.978560  9.997570 10.507180
O    -0.025880  7.998060 10.507000
O    -0.014860  9.997570 12.488840
O     1.967140  9.997570 10.515200
O     3.999260  7.998060 10.509570
O     3.999910  9.997570 12.527160
O     5.986180  9.997570 10.508700
O     8.000750  7.998060 10.506820
O     8.004550  9.997570 12.541530
Ti_pv  0.092480  1.999520  2.309080
Ti_pv  4.010050  1.999520  2.275380
Ti_pv  8.039330  1.999520  2.261820
Ti_pv  0.092480  5.998550  2.309080
Ti_pv  4.010050  5.998550  2.275380
Ti_pv  8.039330  5.998550  2.261820
Ti_pv  0.092480  9.997570  2.309080
Ti_pv  4.010050  9.997570  2.275380
Ti_pv  8.039330  9.997570  2.261820
Ti_pv  0.092480  1.999520  6.526560
Ti_pv  4.010050  1.999520  6.492850
Ti_pv  8.039330  1.999520  6.479290
Ti_pv  0.092480  5.998550  6.526560
Ti_pv  4.010050  5.998550  6.492850
Ti_pv  8.039330  5.998550  6.479290
Ti_pv  0.092480  9.997570  6.526560
Ti_pv  4.010050  9.997570  6.492850
Ti_pv  8.039330  9.997570  6.479290
Ti_pv  0.092480  1.999520 10.744040
Ti_pv  4.010050  1.999520 10.710330
Ti_pv  8.039330  1.999520 10.696770
Ti_pv  0.092480  5.998550 10.744040
Ti_pv  4.010050  5.998550 10.710330
Ti_pv  8.039330  5.998550 10.696770
Ti_pv  0.092480  9.997570 10.744040
Ti_pv  4.010050  9.997570 10.710330
Ti_pv  8.039330  9.997570 10.696770
Ba_sv  9.978510 -0.000000  0.091440
Ba_sv  1.971410 -0.000000  0.085710
Ba_sv  5.995220 -0.000000  0.087400
Ba_sv  9.978510  3.999030  0.091440
Ba_sv  1.971410  3.999030  0.085710
Ba_sv  5.995220  3.999030  0.087400
Ba_sv  9.978510  7.998060  0.091440
Ba_sv  1.971410  7.998060  0.085710
Ba_sv  5.995220  7.998060  0.087400
Ba_sv  9.978510 -0.000000  4.308930
Ba_sv  1.971410 -0.000000  4.303200
Ba_sv  5.995220 -0.000000  4.304890
Ba_sv  9.978510  3.999030  4.308930
Ba_sv  1.971410  3.999030  4.303200
Ba_sv  5.995220  3.999030  4.304890
Ba_sv  9.978510  7.998060  4.308930
Ba_sv  1.971410  7.998060  4.303200
Ba_sv  5.995220  7.998060  4.304890
Ba_sv  9.978510 -0.000000  8.526400
Ba_sv  1.971410 -0.000000  8.520670
Ba_sv  5.995220 -0.000000  8.522370
Ba_sv  9.978510  3.999030  8.526400
Ba_sv  1.971410  3.999030  8.520670
Ba_sv  5.995220  3.999030  8.522370
Ba_sv  9.978510  7.998060  8.526400
Ba_sv  1.971410  7.998060  8.520670
Ba_sv  5.995220  7.998060  8.522370
135

O     9.976470  1.999520  2.071670
O    -0.027460 -0.000000  2.071080
O    -0.014290  1.999520  4.054760
O     1.972160  1.999520  2.081320
O     3.999240 -0.000000  2.074600
O     4.000270  1.999520  4.091930
O     5.986530  1.999520  2.073790
O     8.003260 -0.000000  2.071480
O     8.008140  1.999520  4.107780
O     9.976470  5.998550  2.071670
O    -0.027460  3.999030  2.071080
O    -0.014290  5.998550  4.054760