       N       E                     dE             d eps       ncg     rms          rms(c)
DAV:   1     0.420721677399E+04    0.42072E+04   -0.11610E+05 14464   0.124E+03
DAV:   2     0.893529722782E+03   -0.33137E+04   -0.31133E+04 14344   0.372E+02
DAV:   3    -0.299049268045E+03   -0.11926E+04   -0.11320E+04 25560   0.213E+02
DAV:   4    -0.457920123542E+03   -0.15887E+03   -0.15443E+03 23272   0.101E+02
DAV:   5    -0.463716869893E+03   -0.57967E+01   -0.56809E+01 23440   0.254E+01    0.748E+01
RMM:   6    -0.326362233133E+03    0.13735E+03   -0.58396E+02 16371   0.669E+01    0.433E+01
RMM:   7    -0.426302928702E+03   -0.99941E+02   -0.12766E+02 17156   0.307E+01    0.131E+02
RMM:   8    -0.321183263547E+03    0.10512E+03   -0.27870E+01 15486   0.153E+01    0.281E+01
RMM:   9    -0.337150284075E+03   -0.15967E+02   -0.18136E+01 14976   0.133E+01    0.150E+01
RMM:  10    -0.347740807427E+03   -0.10591E+02   -0.11247E+01 16841   0.827E+00    0.117E+01
RMM:  11    -0.351502945758E+03   -0.37621E+01   -0.75643E+00 15264   0.729E+00    0.974E+00
RMM:  12    -0.362627866855E+03   -0.11125E+02   -0.60418E+00 16872   0.559E+00    0.848E+00
RMM:  13    -0.366197234569E+03   -0.35694E+01   -0.26997E+00 16938   0.395E+00    0.821E+00
RMM:  14    -0.368948557843E+03   -0.27513E+01   -0.14281E+00 17730   0.237E+00    0.650E+00
RMM:  15    -0.374829091212E+03   -0.58805E+01   -0.20957E+00 16641   0.265E+00    0.561E+00
RMM:  16    -0.379626016288E+03   -0.47969E+01   -0.23445E+00 17113   0.290E+00    0.419E+00
RMM:  17    -0.383427796771E+03   -0.38018E+01   -0.25163E+00 17661   0.265E+00    0.253E+00
RMM:  18    -0.386231626824E+03   -0.28038E+01   -0.25276E+00 17585   0.226E+00    0.237E+00
RMM:  19    -0.387129762271E+03   -0.89814E+00   -0.12728E+00 18046   0.180E+00    0.149E+00
RMM:  20    -0.387463788470E+03   -0.33403E+00   -0.69855E-01 18490   0.111E+00    0.105E+00
RMM:  21    -0.387659297414E+03   -0.19551E+00   -0.27309E-01 17922   0.706E-01    0.782E-01
RMM:  22    -0.387812658285E+03   -0.15336E+00   -0.13977E-01 18198   0.509E-01    0.603E-01
RMM:  23    -0.387972031211E+03   -0.15937E+00   -0.74517E-02 18186   0.348E-01    0.419E-01
RMM:  24    -0.388090041799E+03   -0.11801E+00   -0.30552E-02 17914   0.241E-01    0.326E-01
RMM:  25    -0.388178276670E+03   -0.88235E-01   -0.11947E-02 18048   0.149E-01    0.154E-01
RMM:  26    -0.388228965476E+03   -0.50689E-01   -0.47738E-03 17440   0.925E-02    0.868E-02
RMM:  27    -0.388255484971E+03   -0.26519E-01   -0.30115E-03 17526   0.687E-02    0.496E-02
RMM:  28    -0.388260861249E+03   -0.53763E-02   -0.92551E-04 15427   0.357E-02    0.403E-02
RMM:  29    -0.388264323113E+03   -0.34619E-02   -0.58730E-04 14425   0.279E-02    0.298E-02
RMM:  30    -0.388265474669E+03   -0.11516E-02   -0.24941E-04 12967   0.227E-02    0.348E-02
RMM:  31    -0.388266080081E+03   -0.60541E-03   -0.13163E-04 11553   0.166E-02    0.375E-02
RMM:  32    -0.388266193468E+03   -0.11339E-03   -0.40282E-05 10072   0.131E-02    0.189E-02
RMM:  33    -0.388266349369E+03   -0.15590E-03   -0.34530E-05  9984   0.869E-03    0.148E-02
RMM:  34    -0.388266483245E+03   -0.13388E-03   -0.29141E-05  9667   0.937E-03    0.126E-02
RMM:  35    -0.388266551081E+03   -0.67836E-04   -0.21511E-05  9414   0.672E-03    0.102E-02
RMM:  36    -0.388266599879E+03   -0.48798E-04   -0.14657E-05  9398   0.645E-03    0.733E-03
RMM:  37    -0.388266629603E+03   -0.29724E-04   -0.14667E-05  9458   0.568E-03    0.524E-03
RMM:  38    -0.388266629784E+03   -0.18096E-06   -0.85304E-06  8983   0.546E-03
   1 F= -.38826663E+03 E0= -.38826536E+03  d E =-.388267E+03  mag=    42.0076
       N       E                     dE             d eps       ncg     rms          rms(c)
DAV:   1    -0.388539850013E+03   -0.27322E+00   -0.20156E+01 14880   0.101E+01    0.258E+00
RMM:   2    -0.388660217080E+03   -0.12037E+00   -0.66224E-01 15825   0.295E+00    0.131E+00
RMM:   3    -0.388696071177E+03   -0.35854E-01   -0.10823E-01 18504   0.765E-01    0.414E-01
RMM:   4    -0.388694356446E+03    0.17147E-02   -0.48250E-03 17471   0.196E-01    0.414E-01
RMM:   5    -0.388693674486E+03    0.68196E-03   -0.13293E-03 18229   0.851E-02    0.266E-01
RMM:   6    -0.388692786547E+03    0.88794E-03   -0.16719E-03 16749   0.115E-01    0.136E-01
RMM:   7    -0.388692735939E+03    0.50607E-04   -0.20235E-03 19082   0.925E-02    0.418E-02
RMM:   8    -0.388692822582E+03   -0.86643E-04   -0.11314E-04 14500   0.320E-02    0.203E-02
RMM:   9    -0.388692895209E+03   -0.72627E-04   -0.19408E-05  9629   0.123E-02    0.114E-02
RMM:  10    -0.388692982400E+03   -0.87190E-04   -0.14174E-05  9422   0.121E-02    0.806E-03
RMM:  11    -0.388693016741E+03   -0.34341E-04   -0.72678E-06  9309   0.104E-02    0.444E-03
RMM:  12    -0.388693031467E+03   -0.14726E-04   -0.35055E-06  9153   0.588E-03    0.258E-03
RMM:  13    -0.388693042024E+03   -0.10557E-04   -0.21098E-06  8881   0.474E-03    0.249E-03
RMM:  14    -0.388693053628E+03   -0.11604E-04   -0.21223E-06  8305   0.364E-03    0.226E-03
RMM:  15    -0.388693062974E+03   -0.93457E-05   -0.19378E-06  8218   0.348E-03
   2 F= -.38869306E+03 E0= -.38869105E+03  d E =-.426433E+00  mag=    42.0064
       N       E                     dE             d eps       ncg     rms          rms(c)
DAV:   1    -0.388102179292E+03    0.59087E+00   -0.18112E+02 14424   0.304E+01    0.787E+00
RMM:   2    -0.389227651999E+03   -0.11255E+01   -0.64013E+00 15859   0.900E+00    0.409E+00
RMM:   3    -0.389600294885E+03   -0.37264E+00   -0.11234E+00 18492   0.241E+00    0.159E+00
RMM:   4    -0.389592049607E+03    0.82453E-02   -0.57318E-02 17301   0.697E-01    0.162E+00
RMM:   5    -0.389575605128E+03    0.16444E-01   -0.16401E-02 18424   0.306E-01    0.898E-01
RMM:   6    -0.389566203419E+03    0.94017E-02   -0.15023E-02 16485   0.365E-01    0.495E-01
RMM:   7    -0.389563525851E+03    0.26776E-02   -0.25794E-02 19178   0.320E-01    0.167E-01
RMM:   8    -0.389564059520E+03   -0.53367E-03   -0.21232E-03 17484   0.131E-01    0.903E-02
RMM:   9    -0.389564390943E+03   -0.33142E-03   -0.41251E-04 17087   0.442E-02    0.487E-02
RMM:  10    -0.389564773800E+03   -0.38286E-03   -0.12674E-04 15023   0.294E-02    0.273E-02
RMM:  11    -0.389565258376E+03   -0.48458E-03   -0.72260E-05 13359   0.216E-02    0.140E-02
RMM:  12    -0.389565480117E+03   -0.22174E-03   -0.16970E-05  9601   0.119E-02    0.826E-03
RMM:  13    -0.389565618337E+03   -0.13822E-03   -0.89774E-06  9406   0.102E-02    0.759E-03
RMM:  14    -0.389565767460E+03   -0.14912E-03   -0.10128E-05  9486   0.705E-03    0.649E-03
RMM:  15    -0.389565901746E+03   -0.13429E-03   -0.12902E-05  9678   0.775E-03    0.816E-03
RMM:  16    -0.389565932506E+03   -0.30759E-04   -0.67195E-06  9198   0.681E-03    0.283E-03
RMM:  17    -0.389565957634E+03   -0.25128E-04   -0.57239E-06  8928   0.547E-03    0.315E-03
RMM:  18    -0.389565975941E+03   -0.18307E-04   -0.48012E-06  8742   0.548E-03    0.175E-03
RMM:  19    -0.389565984096E+03   -0.81555E-05   -0.30748E-06  8393   0.446E-03
   3 F= -.38956598E+03 E0= -.38956219E+03  d E =-.129935E+01  mag=    42.0014
       N       E                     dE             d eps       ncg     rms          rms(c)
DAV:   1    -0.383186342727E+03    0.63796E+01   -0.72752E+02 14776   0.620E+01    0.155E+01
RMM:   2    -0.388231132663E+03   -0.50448E+01   -0.29234E+01 15904   0.181E+01    0.999E+00
RMM:   3    -0.390571035717E+03   -0.23399E+01   -0.53572E+00 18008   0.591E+00    0.102E+01
RMM:   4    -0.389450705553E+03    0.11203E+01   -0.78203E-01 17958   0.231E+00    0.330E+00
RMM:   5    -0.389399879102E+03    0.50826E-01   -0.17253E-01 18312   0.938E-01    0.184E+00
RMM:   6    -0.389380935043E+03    0.18944E-01   -0.60081E-02 18398   0.591E-01    0.161E+00
RMM:   7    -0.389349125300E+03    0.31810E-01   -0.88696E-02 16773   0.853E-01    0.103E+00
RMM:   8    -0.389350694422E+03   -0.15691E-02   -0.53473E-02 19031   0.466E-01    0.626E-01
RMM:   9    -0.389354916894E+03   -0.42225E-02   -0.78849E-03 16709   0.260E-01    0.395E-01
RMM:  10    -0.389358484738E+03   -0.35678E-02   -0.23716E-03 17173   0.130E-01    0.115E-01
RMM:  11    -0.389366207876E+03   -0.77231E-02   -0.10720E-03 17849   0.767E-02    0.730E-02
RMM:  12    -0.389373863775E+03   -0.76559E-02   -0.46569E-04 16056   0.444E-02    0.483E-02
RMM:  13    -0.389377904124E+03   -0.40403E-02   -0.19455E-04 14201   0.274E-02    0.317E-02
RMM:  14    -0.389381127546E+03   -0.32234E-02   -0.12057E-04 12439   0.189E-02    0.267E-02
RMM:  15    -0.389383415129E+03   -0.22876E-02   -0.87333E-05 11484   0.164E-02    0.224E-02
RMM:  16    -0.389385733613E+03   -0.23185E-02   -0.12181E-04 12008   0.180E-02    0.152E-02
RMM:  17    -0.389386802555E+03   -0.10689E-02   -0.84750E-05 11195   0.149E-02    0.900E-03
RMM:  18    -0.389387176525E+03   -0.37397E-03   -0.46889E-05 10557   0.133E-02    0.351E-02
RMM:  19    -0.389387214594E+03   -0.38069E-04   -0.11938E-05  9482   0.948E-03    0.198E-02
RMM:  20    -0.389387270163E+03   -0.55569E-04   -0.93737E-06  9437   0.690E-03    0.728E-03
RMM:  21    -0.389387321310E+03   -0.51147E-04   -0.10766E-05  9394   0.678E-03    0.841E-03
RMM:  22    -0.389387341018E+03   -0.19708E-04   -0.57236E-06  8931   0.640E-03    0.136E-02
RMM:  23    -0.389387348340E+03   -0.73219E-05   -0.31361E-06  8541   0.494E-03
   4 F= -.38938735E+03 E0= -.38938075E+03  d E =-.112072E+01  mag=    42.0000
       N       E                     dE             d eps       ncg     rms          rms(c)
DAV:   1    -0.387830227031E+03    0.15571E+01   -0.24279E+02 14424   0.354E+01    0.910E+00
RMM:   2    -0.389457561699E+03   -0.16273E+01   -0.92109E+00 15670   0.110E+01    0.474E+00
RMM:   3    -0.389865677856E+03   -0.40812E+00   -0.16605E+00 18680   0.297E+00    0.183E+00
RMM:   4    -0.389858354396E+03    0.73235E-02   -0.69870E-02 17274   0.811E-01    0.260E+00
RMM:   5    -0.389821198312E+03    0.37156E-01   -0.22181E-02 17920   0.401E-01    0.111E+00
RMM:   6    -0.389805409399E+03    0.15789E-01   -0.25993E-02 17398   0.433E-01    0.723E-01
RMM:   7    -0.389791839747E+03    0.13570E-01   -0.26969E-02 18361   0.366E-01    0.437E-01
RMM:   8    -0.389793314518E+03   -0.14748E-02   -0.68793E-03 17886   0.212E-01    0.146E-01
RMM:   9    -0.389795861541E+03   -0.25470E-02   -0.16488E-03 17231   0.857E-02    0.872E-02
RMM:  10    -0.389799387476E+03   -0.35259E-02   -0.44578E-04 15021   0.448E-02    0.484E-02
RMM:  11    -0.389804692326E+03   -0.53049E-02   -0.69394E-04 15631   0.439E-02    0.342E-02
RMM:  12    -0.389808085934E+03   -0.33936E-02   -0.34512E-04 13753   0.327E-02    0.230E-02
RMM:  13    -0.389809709973E+03   -0.16240E-02   -0.15092E-04 12242   0.184E-02    0.154E-02
RMM:  14    -0.389811507875E+03   -0.17979E-02   -0.13996E-04 12229   0.178E-02    0.131E-02
RMM:  15    -0.389813475882E+03   -0.19680E-02   -0.23725E-04 13123   0.183E-02    0.819E-03
RMM:  16    -0.389814167544E+03   -0.69166E-03   -0.10757E-04 11685   0.170E-02    0.441E-03
RMM:  17    -0.389814442613E+03   -0.27507E-03   -0.55428E-05 10934   0.106E-02    0.453E-03
RMM:  18    -0.389814529785E+03   -0.87172E-04   -0.20624E-05  9910   0.107E-02    0.176E-03
RMM:  19    -0.389814581999E+03   -0.52214E-04   -0.10502E-05  9192   0.678E-03    0.129E-03
RMM:  20    -0.389814614683E+03   -0.32684E-04   -0.50582E-06  8643   0.627E-03    0.177E-03
RMM:  21    -0.389814656186E+03   -0.41503E-04   -0.47943E-06  8561   0.453E-03    0.181E-03
RMM:  22    -0.389814687136E+03   -0.30950E-04   -0.37484E-06  8358   0.409E-03    0.916E-04
RMM:  23    -0.389814710770E+03   -0.23634E-04   -0.32689E-06  7458   0.301E-03    0.138E-03
RMM:  24    -0.389814724575E+03   -0.13804E-04   -0.20754E-06  6916   0.266E-03    0.631E-04
RMM:  25    -0.389814737754E+03   -0.13179E-04   -0.18261E-06  6159   0.206E-03    0.948E-04
RMM:  26    -0.389814746182E+03   -0.84281E-05   -0.12774E-06  5444   0.196E-03
   5 F= -.38981475E+03 E0= -.38980870E+03  d E =-.154812E+01  mag=    42.0002
       N       E                     dE             d eps       ncg     rms          rms(c)
DAV:   1    -0.389614916555E+03    0.19982E+00   -0.55054E+01 14360   0.161E+01    0.517E+00
RMM:   2    -0.389961441559E+03   -0.34653E+00   -0.17914E+00 15890   0.489E+00    0.283E+00
RMM:   3    -0.390272359060E+03   -0.31092E+00   -0.40514E-01 18775   0.142E+00    0.375E+00
RMM:   4    -0.390167749531E+03    0.10461E+00   -0.75791E-02 16881   0.655E-01    0.650E-01
RMM:   5    -0.390173182076E+03   -0.54325E-02   -0.14988E-02 17933   0.309E-01    0.476E-01
RMM:   6    -0.390178565730E+03   -0.53837E-02   -0.64397E-03 17662   0.170E-01    0.397E-01
RMM:   7    -0.390178744432E+03   -0.17870E-03   -0.60885E-03 18062   0.185E-01    0.199E-01
RMM:   8    -0.390183791636E+03   -0.50472E-02   -0.39851E-03 19097   0.123E-01    0.112E-01
RMM:   9    -0.390186560393E+03   -0.27688E-02   -0.49195E-04 16942   0.555E-02    0.671E-02
RMM:  10    -0.390189842260E+03   -0.32819E-02   -0.14744E-04 13913   0.278E-02    0.438E-02
RMM:  11    -0.390194581939E+03   -0.47397E-02   -0.12492E-04 13760   0.254E-02    0.319E-02
RMM:  12    -0.390199769502E+03   -0.51876E-02   -0.13935E-04 12408   0.203E-02    0.187E-02
RMM:  13    -0.390202647796E+03   -0.28783E-02   -0.68767E-05 10946   0.163E-02    0.138E-02
RMM:  14    -0.390205402362E+03   -0.27546E-02   -0.64542E-05 10790   0.140E-02    0.174E-02
RMM:  15    -0.390207830379E+03   -0.24280E-02   -0.75980E-05 10883   0.137E-02    0.593E-03
RMM:  16    -0.390208661711E+03   -0.83133E-03   -0.37946E-05 10259   0.119E-02    0.438E-03
RMM:  17    -0.390208872862E+03   -0.21115E-03   -0.15203E-05  9620   0.868E-03    0.232E-03
RMM:  18    -0.390208954076E+03   -0.81213E-04   -0.87403E-06  9334   0.674E-03    0.311E-03
RMM:  19    -0.390208978042E+03   -0.23967E-04   -0.45804E-06  8828   0.529E-03    0.880E-04
RMM:  20    -0.390208980608E+03   -0.25655E-05   -0.29363E-06  8306   0.424E-03
   6 F= -.39020898E+03 E0= -.39020237E+03  d E =-.394234E+00  mag=    42.0001
       N       E                     dE             d eps       ncg     rms          rms(c)
DAV:   1    -0.385461991883E+03    0.47470E+01   -0.41402E+02 14776   0.451E+01    0.141E+01
RMM:   2    -0.388926148160E+03   -0.34642E+01   -0.16008E+01 16169   0.135E+01    0.812E+00
RMM:   3    -0.390591500229E+03   -0.16654E+01   -0.31766E+00 18478   0.433E+00    0.672E+00
RMM:   4    -0.390409944735E+03    0.18156E+00   -0.56473E-01 16869   0.188E+00    0.353E+00
RMM:   5    -0.390432996405E+03   -0.23052E-01   -0.18839E-01 17097   0.106E+00    0.199E+00
RMM:   6    -0.390456647532E+03   -0.23651E-01   -0.75608E-02 18563   0.541E-01    0.130E+00
RMM:   7    -0.390469139480E+03   -0.12492E-01   -0.34533E-02 17313   0.442E-01    0.120E+00
RMM:   8    -0.390474993557E+03   -0.58541E-02   -0.44261E-02 18137   0.500E-01    0.943E-01
RMM:   9    -0.390491104083E+03   -0.16111E-01   -0.24554E-02 19116   0.305E-01    0.212E-01
RMM:  10    -0.390514669701E+03   -0.23566E-01   -0.48647E-03 18432   0.161E-01    0.164E-01
RMM:  11    -0.390543447366E+03   -0.28778E-01   -0.11097E-03 17084   0.664E-02    0.999E-02
RMM:  12    -0.390587391961E+03   -0.43945E-01   -0.12200E-03 17446   0.630E-02    0.692E-02
RMM:  13    -0.390617794789E+03   -0.30403E-01   -0.68743E-04 15783   0.442E-02    0.550E-02
RMM:  14    -0.390635916697E+03   -0.18122E-01   -0.33475E-04 14598   0.317E-02    0.366E-02
RMM:  15    -0.390653399321E+03   -0.17483E-01   -0.42624E-04 15018   0.383E-02    0.741E-02
RMM:  16    -0.390661686568E+03   -0.82872E-02   -0.32457E-04 14540   0.299E-02    0.152E-02
RMM:  17    -0.390664273805E+03   -0.25872E-02   -0.13323E-04 11405   0.194E-02    0.832E-03
RMM:  18    -0.390665005825E+03   -0.73202E-03   -0.57685E-05 10755   0.138E-02    0.494E-03
RMM:  19    -0.390665230132E+03   -0.22431E-03   -0.27990E-05 10026   0.104E-02    0.346E-03
RMM:  20    -0.390665277903E+03   -0.47772E-04   -0.96222E-06  9442   0.778E-03    0.318E-03
RMM:  21    -0.390665303265E+03   -0.25362E-04   -0.65170E-06  9288   0.568E-03    0.156E-03
RMM:  22    -0.390665306771E+03   -0.35056E-05   -0.44268E-06  8813   0.467E-03
   7 F= -.39066531E+03 E0= -.39065905E+03  d E =-.850561E+00  mag=    42.0000
       N       E                     dE             d eps       ncg     rms          rms(c)
DAV:   1    -0.389770007885E+03    0.89530E+00   -0.11681E+02 14472   0.235E+01    0.724E+00
RMM:   2    -0.390688052570E+03   -0.91804E+00   -0.39202E+00 15755   0.707E+00    0.550E+00
RMM:   3    -0.391346273971E+03   -0.65822E+00   -0.10818E+00 18201   0.277E+00    0.660E+00
RMM:   4    -0.390966641368E+03    0.37963E+00   -0.31981E-01 16827   0.146E+00    0.213E+00
RMM:   5    -0.390956941027E+03    0.97003E-02   -0.64278E-02 17288   0.653E-01    0.846E-01
RMM:   6    -0.390964424844E+03   -0.74838E-02   -0.14601E-02 18446   0.231E-01    0.768E-01
RMM:   7    -0.390966612458E+03   -0.21876E-02   -0.72038E-03 17087   0.197E-01    0.559E-01
RMM:   8    -0.390972545042E+03   -0.59326E-02   -0.15034E-02 18242   0.281E-01    0.303E-01
RMM:   9    -0.390975702096E+03   -0.31571E-02   -0.51535E-03 18989   0.152E-01    0.115E-01
RMM:  10    -0.390980893359E+03   -0.51913E-02   -0.89077E-04 17675   0.629E-02    0.647E-02
RMM:  11    -0.390986049162E+03   -0.51558E-02   -0.21851E-04 14851   0.321E-02    0.469E-02
RMM:  12    -0.390992915454E+03   -0.68663E-02   -0.20938E-04 15095   0.305E-02    0.326E-02
RMM:  13    -0.390999560625E+03   -0.66452E-02   -0.16966E-04 12578   0.207E-02    0.214E-02
RMM:  14    -0.391003632430E+03   -0.40718E-02   -0.85628E-05 11022   0.182E-02    0.176E-02
RMM:  15    -0.391008187238E+03   -0.45548E-02   -0.12409E-04 11611   0.173E-02    0.176E-02
RMM:  16    -0.391010140874E+03   -0.19536E-02   -0.66019E-05 10655   0.160E-02    0.580E-03
RMM:  17    -0.391010873565E+03   -0.73269E-03   -0.36783E-05 10303   0.101E-02    0.719E-03
RMM:  18    -0.391011067717E+03   -0.19415E-03   -0.13855E-05  9575   0.994E-03    0.313E-03
RMM:  19    -0.391011130722E+03   -0.63004E-04   -0.83199E-06  9295   0.604E-03    0.143E-03
RMM:  20    -0.391011147177E+03   -0.16456E-04   -0.36543E-06  8870   0.566E-03    0.919E-04
RMM:  21    -0.391011152561E+03   -0.53840E-05   -0.22776E-06  8310   0.381E-03
   8 F= -.39101115E+03 E0= -.39100666E+03  d E =-.345846E+00  mag=    42.0001
       N       E                     dE             d eps       ncg     rms          rms(c)
DAV:   1    -0.389166114968E+03    0.18450E+01   -0.18081E+02 14448   0.294E+01    0.905E+00
RMM:   2    -0.390620749727E+03   -0.14546E+01   -0.63427E+00 15863   0.884E+00    0.635E+00
RMM:   3    -0.391467032904E+03   -0.84628E+00   -0.16210E+00 18339   0.332E+00    0.681E+00
RMM:   4    -0.391106166591E+03    0.36087E+00   -0.36756E-01 16985   0.160E+00    0.252E+00
RMM:   5    -0.391092058497E+03    0.14108E-01   -0.81850E-02 17408   0.710E-01    0.107E+00
RMM:   6    -0.391100696695E+03   -0.86382E-02   -0.18093E-02 18324   0.270E-01    0.988E-01
RMM:   7    -0.391105661207E+03   -0.49645E-02   -0.11544E-02 16964   0.246E-01    0.733E-01
RMM:   8    -0.391113325997E+03   -0.76648E-02   -0.27565E-02 18247   0.377E-01    0.369E-01
RMM:   9    -0.391117338611E+03   -0.40126E-02   -0.79794E-03 19011   0.189E-01    0.161E-01
RMM:  10    -0.391125273863E+03   -0.79353E-02   -0.15990E-03 18018   0.836E-02    0.814E-02
RMM:  11    -0.391133927213E+03   -0.86533E-02   -0.37467E-04 16141   0.390E-02    0.597E-02
RMM:  12    -0.391146669360E+03   -0.12742E-01   -0.36173E-04 15844   0.388E-02    0.435E-02
RMM:  13    -0.391157398716E+03   -0.10729E-01   -0.27195E-04 14029   0.264E-02    0.307E-02
RMM:  14    -0.391163025604E+03   -0.56269E-02   -0.11341E-04 11562   0.218E-02    0.340E-02
RMM:  15    -0.391168568917E+03   -0.55433E-02   -0.12905E-04 12396   0.202E-02    0.293E-02
RMM:  16    -0.391172617564E+03   -0.40486E-02   -0.12597E-04 11628   0.191E-02    0.112E-02
RMM:  17    -0.391173923987E+03   -0.13064E-02   -0.59357E-05 10620   0.137E-02    0.116E-02
RMM:  18    -0.391174255539E+03   -0.33155E-03   -0.21493E-05  9797   0.109E-02    0.280E-03
RMM:  19    -0.391174368901E+03   -0.11336E-03   -0.10564E-05  9499   0.784E-03    0.334E-03
RMM:  20    -0.391174399376E+03   -0.30475E-04   -0.52827E-06  9199   0.619E-03    0.125E-03
RMM:  21    -0.391174408078E+03   -0.87017E-05   -0.31384E-06  8764   0.486E-03
   9 F= -.39117441E+03 E0= -.39117265E+03  d E =-.509101E+00  mag=    42.0008
       N       E                     dE             d eps       ncg     rms          rms(c)
DAV:   1    -0.390793490038E+03    0.38091E+00   -0.68530E+01 14544   0.178E+01    0.511E+00
RMM:   2    -0.391246236404E+03   -0.45275E+00   -0.21155E+00 15497   0.532E+00    0.262E+00
RMM:   3    -0.391378763455E+03   -0.13253E+00   -0.43440E-01 19024   0.141E+00    0.919E-01
RMM:   4    -0.391373752645E+03    0.50108E-02   -0.15551E-02 17556   0.378E-01    0.103E+00
RMM:   5    -0.391367456922E+03    0.62957E-02   -0.39309E-03 17890   0.160E-01    0.492E-01
RMM:   6    -0.391365465106E+03    0.19918E-02   -0.21705E-03 17269   0.132E-01    0.488E-01
RMM:   7    -0.391360963121E+03    0.45020E-02   -0.86171E-03 18277   0.218E-01    0.207E-01
RMM:   8    -0.391360944515E+03    0.18606E-04   -0.25042E-03 18646   0.119E-01    0.156E-01
RMM:   9    -0.391360986299E+03   -0.41784E-04   -0.58866E-04 17202   0.614E-02    0.709E-02
RMM:  10    -0.391361478586E+03   -0.49229E-03   -0.96962E-05 12377   0.252E-02    0.327E-02
RMM:  11    -0.391362112969E+03   -0.63438E-03   -0.58620E-05 12142   0.185E-02    0.244E-02
RMM:  12    -0.391362942947E+03   -0.82998E-03   -0.57450E-05 10912   0.178E-02    0.193E-02
RMM:  13    -0.391363456776E+03   -0.51383E-03   -0.28958E-05  9612   0.125E-02    0.938E-03
RMM:  14    -0.391363954649E+03   -0.49787E-03   -0.22893E-05  9485   0.894E-03    0.736E-03
RMM:  15    -0.391364612679E+03   -0.65803E-03   -0.38554E-05  9802   0.851E-03    0.576E-03
RMM:  16    -0.391365255032E+03   -0.64235E-03   -0.72920E-05 10144   0.861E-03    0.363E-03
RMM:  17    -0.391365404918E+03   -0.14989E-03   -0.34240E-05  9609   0.841E-03    0.427E-03
RMM:  18    -0.391365437635E+03   -0.32717E-04   -0.12021E-05  8929   0.594E-03    0.316E-03
RMM:  19    -0.391365454398E+03   -0.16763E-04   -0.82171E-06  8802   0.532E-03    0.262E-03
RMM:  20    -0.391365461830E+03   -0.74315E-05   -0.45015E-06  8521   0.432E-03
  10 F= -.39136546E+03 E0= -.39136458E+03  d E =-.191054E+00  mag=    42.0004
       N       E                     dE             d eps       ncg     rms          rms(c)
DAV:   1    -0.390398676558E+03    0.96678E+00   -0.12408E+02 14416   0.241E+01    0.690E+00
RMM:   2    -0.391240886524E+03   -0.84221E+00   -0.39928E+00 15544   0.719E+00    0.358E+00
RMM:   3    -0.391501383658E+03   -0.26050E+00   -0.81779E-01 18987   0.195E+00    0.195E+00
RMM:   4    -0.391473542523E+03    0.27841E-01   -0.34251E-02 17548   0.568E-01    0.129E+00
RMM:   5    -0.391462355857E+03    0.11187E-01   -0.85540E-03 18309   0.235E-01    0.668E-01
RMM:   6    -0.391458276045E+03    0.40798E-02   -0.46576E-03 17236   0.191E-01    0.616E-01
RMM:   7    -0.391450449774E+03    0.78263E-02   -0.15187E-02 18350   0.288E-01    0.243E-01
RMM:   8    -0.391450586225E+03   -0.13645E-03   -0.43613E-03 19010   0.147E-01    0.197E-01
RMM:   9    -0.391450690686E+03   -0.10446E-03   -0.95760E-04 16829   0.829E-02    0.977E-02
RMM:  10    -0.391451640497E+03   -0.94981E-03   -0.19361E-04 14380   0.355E-02    0.405E-02
RMM:  11    -0.391452766832E+03   -0.11263E-02   -0.11577E-04 13799   0.231E-02    0.282E-02
RMM:  12    -0.391453824093E+03   -0.10573E-02   -0.75376E-05 11237   0.206E-02    0.196E-02
RMM:  13    -0.391454559302E+03   -0.73521E-03   -0.40799E-05  9946   0.138E-02    0.123E-02
RMM:  14    -0.391455281795E+03   -0.72249E-03   -0.33565E-05  9649   0.112E-02    0.962E-03
RMM:  15    -0.391456026700E+03   -0.74490E-03   -0.43248E-05  9907   0.101E-02    0.821E-03
RMM:  16    -0.391456878531E+03   -0.85183E-03   -0.81285E-05 10270   0.984E-03    0.584E-03
RMM:  17    -0.391457271933E+03   -0.39340E-03   -0.68212E-05 10032   0.932E-03    0.336E-03
RMM:  18    -0.391457347153E+03   -0.75220E-04   -0.22720E-05  9421   0.774E-03    0.380E-03
RMM:  19    -0.391457366664E+03   -0.19511E-04   -0.11204E-05  9111   0.591E-03    0.327E-03
RMM:  20    -0.391457378666E+03   -0.12002E-04   -0.62090E-06  8606   0.539E-03    0.213E-03
RMM:  21    -0.391457387884E+03   -0.92176E-05   -0.25159E-06  8081   0.372E-03
  11 F= -.39145739E+03 E0= -.39145731E+03  d E =-.282980E+00  mag=    42.0002
       N       E                     dE             d eps       ncg     rms          rms(c)
DAV:   1    -0.390687032134E+03    0.77035E+00   -0.10967E+02 14360   0.233E+01    0.629E+00
RMM:   2    -0.391430333315E+03   -0.74330E+00   -0.36877E+00 15452   0.699E+00    0.359E+00
RMM:   3    -0.391801110468E+03   -0.37078E+00   -0.77193E-01 18895   0.210E+00    0.488E+00
RMM:   4    -0.391590894351E+03    0.21022E+00   -0.77219E-02 17621   0.792E-01    0.869E-01
RMM:   5    -0.391586903985E+03    0.39904E-02   -0.17897E-02 18891   0.295E-01    0.650E-01
RMM:   6    -0.391581892407E+03    0.50116E-02   -0.51858E-03 17267   0.206E-01    0.513E-01
RMM:   7    -0.391576253543E+03    0.56389E-02   -0.10740E-02 18392   0.242E-01    0.242E-01
RMM:   8    -0.391575096863E+03    0.11567E-02   -0.42094E-03 18999   0.146E-01    0.883E-02
RMM:   9    -0.391575626372E+03   -0.52951E-03   -0.51845E-04 17080   0.593E-02    0.576E-02
RMM:  10    -0.391576968274E+03   -0.13419E-02   -0.11993E-04 13982   0.261E-02    0.399E-02
RMM:  11    -0.391578835230E+03   -0.18670E-02   -0.11432E-04 13082   0.219E-02    0.242E-02
RMM:  12    -0.391580726339E+03   -0.18911E-02   -0.98347E-05 10937   0.173E-02    0.164E-02
RMM:  13    -0.391582026891E+03   -0.13006E-02   -0.63198E-05 10062   0.139E-02    0.131E-02
RMM:  14    -0.391583444594E+03   -0.14177E-02   -0.70062E-05 10222   0.118E-02    0.101E-02
RMM:  15    -0.391585298646E+03   -0.18541E-02   -0.17357E-04 11041   0.130E-02    0.770E-03
RMM:  16    -0.391585957052E+03   -0.65841E-03   -0.15458E-04 10598   0.116E-02    0.306E-03
RMM:  17    -0.391586035156E+03   -0.78104E-04   -0.39533E-05  9884   0.871E-03    0.693E-03
RMM:  18    -0.391586033705E+03    0.14513E-05   -0.86703E-06  9238   0.792E-03
  12 F= -.39158603E+03 E0= -.39158381E+03  d E =-.128646E+00  mag=    42.0000
       N       E                     dE             d eps       ncg     rms          rms(c)
DAV:   1    -0.391584727718E+03    0.13074E-02   -0.19855E-01 15000   0.986E-01    0.261E-01
RMM:   2    -0.391586004078E+03   -0.12764E-02   -0.61688E-03 15496   0.290E-01    0.137E-01
RMM:   3    -0.391586553573E+03   -0.54949E-03   -0.11569E-03 18563   0.800E-02    0.164E-01
RMM:   4    -0.391586355803E+03    0.19777E-03   -0.75514E-05 13007   0.258E-02    0.334E-02
RMM:   5    -0.391586347034E+03    0.87693E-05   -0.17124E-05  9431   0.136E-02
  13 F= -.39158635E+03 E0= -.39158400E+03  d E =-.128959E+00  mag=    42.0000
       N       E                     dE             d eps       ncg     rms          rms(c)
DAV:   1    -0.391405949533E+03    0.18041E+00   -0.31318E+01 14368   0.126E+01    0.331E+00
RMM:   2    -0.391667413919E+03   -0.26146E+00   -0.10308E+00 15432   0.386E+00    0.308E+00
RMM:   3    -0.391866686197E+03   -0.19927E+00   -0.27388E-01 17953   0.150E+00    0.477E+00
RMM:   4    -0.391650665202E+03    0.21602E+00   -0.67152E-02 17075   0.765E-01    0.520E-01
RMM:   5    -0.391651975039E+03   -0.13098E-02   -0.13960E-02 18876   0.240E-01    0.321E-01
RMM:   6    -0.391651186977E+03    0.78806E-03   -0.13061E-03 17512   0.976E-02    0.246E-01
RMM:   7    -0.391649735351E+03    0.14516E-02   -0.34339E-03 18713   0.136E-01    0.128E-01
RMM:   8    -0.391649607097E+03    0.12825E-03   -0.91038E-04 18393   0.737E-02    0.422E-02
RMM:   9    -0.391649732715E+03   -0.12562E-03   -0.13229E-04 13946   0.275E-02    0.283E-02
RMM:  10    -0.391649961947E+03   -0.22923E-03   -0.20909E-05  9763   0.150E-02    0.210E-02
RMM:  11    -0.391650296981E+03   -0.33503E-03   -0.21795E-05  9571   0.126E-02    0.139E-02
RMM:  12    -0.391650785070E+03   -0.48809E-03   -0.35037E-05  9795   0.116E-02    0.100E-02
RMM:  13    -0.391651091726E+03   -0.30666E-03   -0.24298E-05  9469   0.968E-03    0.715E-03
RMM:  14    -0.391651440468E+03   -0.34874E-03   -0.27310E-05  9519   0.701E-03    0.628E-03
RMM:  15    -0.391651839465E+03   -0.39900E-03   -0.57922E-05  9865   0.776E-03    0.356E-03
RMM:  16    -0.391652021871E+03   -0.18241E-03   -0.67521E-05  9827   0.771E-03    0.445E-03
RMM:  17    -0.391652018081E+03    0.37897E-05   -0.15107E-05  9090   0.722E-03
  14 F= -.39165202E+03 E0= -.39164870E+03  d E =-.656710E-01  mag=    42.0000
       N       E                     dE             d eps       ncg     rms          rms(c)
DAV:   1    -0.391592538408E+03    0.59483E-01   -0.88103E+00 14640   0.668E+00    0.174E+00
RMM:   2    -0.391667015296E+03   -0.74477E-01   -0.28202E-01 15421   0.202E+00    0.182E+00
RMM:   3    -0.391743856965E+03   -0.76842E-01   -0.78116E-02 17968   0.809E-01    0.341E+00
RMM:   4    -0.391658807034E+03    0.85050E-01   -0.20852E-02 17205   0.443E-01    0.234E-01
RMM:   5    -0.391660764206E+03   -0.19572E-02   -0.39675E-03 18712   0.135E-01    0.166E-01
RMM:   6    -0.391660590345E+03    0.17386E-03   -0.40201E-04 16993   0.554E-02    0.117E-01
RMM:   7    -0.391660148489E+03    0.44186E-03   -0.96532E-04 18930   0.699E-02    0.747E-02
RMM:   8    -0.391660118930E+03    0.29560E-04   -0.18711E-04 16017   0.360E-02    0.343E-02
RMM:   9    -0.391660172327E+03   -0.53398E-04   -0.36343E-05 10721   0.172E-02    0.142E-02
RMM:  10    -0.391660255362E+03   -0.83034E-04   -0.10426E-05  9326   0.139E-02    0.107E-02
RMM:  11    -0.391660369389E+03   -0.11403E-03   -0.77513E-06  9246   0.674E-03    0.614E-03
RMM:  12    -0.391660522744E+03   -0.15336E-03   -0.10026E-05  9330   0.734E-03    0.609E-03
RMM:  13    -0.391660603018E+03   -0.80274E-04   -0.62615E-06  9198   0.501E-03    0.332E-03
RMM:  14    -0.391660706881E+03   -0.10386E-03   -0.10008E-05  8875   0.404E-03    0.280E-03
RMM:  15    -0.391660818434E+03   -0.11155E-03   -0.15472E-05  9209   0.504E-03    0.271E-03
RMM:  16    -0.391660859283E+03   -0.40850E-04   -0.16954E-05  9019   0.449E-03    0.143E-03
RMM:  17    -0.391660858956E+03    0.32732E-06   -0.59316E-06  8570   0.429E-03
  15 F= -.39166086E+03 E0= -.39165711E+03  d E =-.745119E-01  mag=    42.0001
       N       E                     dE             d eps       ncg     rms          rms(c)
DAV:   1    -0.391425960308E+03    0.23490E+00   -0.27075E+01 14640   0.114E+01    0.371E+00
RMM:   2    -0.391639232833E+03   -0.21327E+00   -0.81858E-01 15523   0.347E+00    0.201E+00
RMM:   3    -0.391747428834E+03   -0.10820E+00   -0.19182E-01 19141   0.997E-01    0.264E+00
RMM:   4    -0.391700208267E+03    0.47221E-01   -0.17115E-02 17620   0.373E-01    0.402E-01
RMM:   5    -0.391701026130E+03   -0.81786E-03   -0.37288E-03 19095   0.139E-01    0.338E-01
RMM:   6    -0.391700777797E+03    0.24833E-03   -0.27059E-03 17986   0.130E-01    0.169E-01
RMM:   7    -0.391701350068E+03   -0.57227E-03   -0.29562E-03 19029   0.120E-01    0.874E-02
RMM:   8    -0.391701520824E+03   -0.17076E-03   -0.42485E-04 17239   0.514E-02    0.348E-02
RMM:   9    -0.391701669123E+03   -0.14830E-03   -0.51253E-05 11453   0.176E-02    0.199E-02
RMM:  10    -0.391701843027E+03   -0.17390E-03   -0.16796E-05  9562   0.133E-02    0.134E-02
RMM:  11    -0.391701997429E+03   -0.15440E-03   -0.14462E-05  9526   0.115E-02    0.690E-03
RMM:  12    -0.391702102322E+03   -0.10489E-03   -0.86007E-06  9368   0.950E-03    0.612E-03
RMM:  13    -0.391702150508E+03   -0.48186E-04   -0.44956E-06  9193   0.634E-03    0.559E-03
RMM:  14    -0.391702205395E+03   -0.54887E-04   -0.25598E-06  8698   0.453E-03    0.304E-03
RMM:  15    -0.391702312298E+03   -0.10690E-03   -0.45569E-06  8929   0.412E-03    0.265E-03
RMM:  16    -0.391702378686E+03   -0.66387E-04   -0.35335E-06  8726   0.416E-03    0.243E-03
RMM:  17    -0.391702397961E+03   -0.19275E-04   -0.20030E-06  7485   0.330E-03    0.195E-03
RMM:  18    -0.391702417692E+03   -0.19731E-04   -0.16972E-06  6853   0.278E-03    0.100E-03
RMM:  19    -0.391702429511E+03   -0.11820E-04   -0.13495E-06  6618   0.265E-03    0.819E-04
RMM:  20    -0.391702434162E+03   -0.46510E-05   -0.95692E-07  5923   0.231E-03
  16 F= -.39170243E+03 E0= -.39169876E+03  d E =-.415752E-01  mag=    42.0001
       N       E                     dE             d eps       ncg     rms          rms(c)
DAV:   1    -0.391674741827E+03    0.27688E-01   -0.30634E+00 14816   0.383E+00    0.124E+00
RMM:   2    -0.391698309092E+03   -0.23567E-01   -0.87538E-02 15561   0.113E+00    0.652E-01
RMM:   3    -0.391708849243E+03   -0.10540E-01   -0.19214E-02 19111   0.317E-01    0.784E-01
RMM:   4    -0.391704925128E+03    0.39241E-02   -0.15786E-03 17526   0.109E-01    0.129E-01
RMM:   5    -0.391704966188E+03   -0.41060E-04   -0.32401E-04 17436   0.425E-02    0.103E-01
RMM:   6    -0.391704981112E+03   -0.14924E-04   -0.30315E-04 17537   0.451E-02    0.559E-02
RMM:   7    -0.391705066485E+03   -0.85373E-04   -0.29561E-04 17493   0.389E-02    0.309E-02
RMM:   8    -0.391705102536E+03   -0.36051E-04   -0.43228E-05 10978   0.200E-02    0.952E-03
RMM:   9    -0.391705134903E+03   -0.32367E-04   -0.93550E-06  9265   0.118E-02    0.664E-03
RMM:  10    -0.391705164064E+03   -0.29160E-04   -0.44834E-06  9112   0.778E-03    0.516E-03
RMM:  11    -0.391705196397E+03   -0.32333E-04   -0.31006E-06  9006   0.580E-03    0.324E-03
RMM:  12    -0.391705214182E+03   -0.17785E-04   -0.22824E-06  8820   0.418E-03    0.271E-03
RMM:  13    -0.391705224003E+03   -0.98212E-05   -0.11195E-06  8024   0.330E-03
  17 F= -.39170522E+03 E0= -.39170162E+03  d E =-.443650E-01  mag=    42.0002
       N       E                     dE             d eps       ncg     rms          rms(c)
DAV:   1    -0.391564592164E+03    0.14062E+00   -0.19331E+01 14712   0.978E+00    0.280E+00
RMM:   2    -0.391692801584E+03   -0.12821E+00   -0.58013E-01 15561   0.287E+00    0.151E+00
RMM:   3    -0.391756125384E+03   -0.63324E-01   -0.12644E-01 18877   0.822E-01    0.223E+00
RMM:   4    -0.391724205303E+03    0.31920E-01   -0.12162E-02 17707   0.310E-01    0.337E-01
RMM:   5    -0.391724092152E+03    0.11315E-03   -0.22551E-03 19033   0.107E-01    0.235E-01
RMM:   6    -0.391724064201E+03    0.27951E-04   -0.17550E-03 18077   0.103E-01    0.151E-01
RMM:   7    -0.391725705898E+03   -0.16417E-02   -0.19598E-03 19005   0.948E-02    0.701E-02
RMM:   8    -0.391726763884E+03   -0.10580E-02   -0.23773E-04 15940   0.378E-02    0.363E-02
RMM:   9    -0.391728185423E+03   -0.14215E-02   -0.55863E-05 11109   0.163E-02    0.314E-02
RMM:  10    -0.391729894108E+03   -0.17087E-02   -0.77271E-05 11102   0.159E-02    0.341E-02
RMM:  11    -0.391731851697E+03   -0.19576E-02   -0.13613E-04 11854   0.160E-02    0.177E-02
RMM:  12    -0.391732992374E+03   -0.11407E-02   -0.95517E-05 10862   0.143E-02    0.110E-02
RMM:  13    -0.391733806480E+03   -0.81411E-03   -0.76404E-05 10798   0.119E-02    0.719E-03
RMM:  14    -0.391734350847E+03   -0.54437E-03   -0.84952E-05 10976   0.128E-02    0.462E-03
RMM:  15    -0.391734373607E+03   -0.22760E-04   -0.23991E-05 10009   0.998E-03    0.231E-03
RMM:  16    -0.391734373820E+03   -0.21299E-06   -0.64994E-06  9041   0.714E-03
  18 F= -.39173437E+03 E0= -.39173080E+03  d E =-.291498E-01  mag=    42.0002
       N       E                     dE             d eps       ncg     rms          rms(c)
DAV:   1    -0.391608824739E+03    0.12555E+00   -0.15301E+01 14904   0.870E+00    0.249E+00
RMM:   2    -0.391710383717E+03   -0.10156E+00   -0.45425E-01 15559   0.254E+00    0.133E+00
RMM:   3    -0.391759835732E+03   -0.49452E-01   -0.99032E-02 18892   0.727E-01    0.198E+00
RMM:   4    -0.391734830161E+03    0.25006E-01   -0.94213E-03 17748   0.271E-01    0.300E-01
RMM:   5    -0.391734575703E+03    0.25446E-03   -0.17054E-03 18963   0.941E-02    0.208E-01
RMM:   6    -0.391734408525E+03    0.16718E-03   -0.13875E-03 18087   0.916E-02    0.134E-01
RMM:   7    -0.391735592500E+03   -0.11840E-02   -0.15206E-03 18986   0.833E-02    0.608E-02
RMM:   8    -0.391736441490E+03   -0.84899E-03   -0.17799E-04 14988   0.332E-02    0.322E-02
RMM:   9    -0.391737592561E+03   -0.11511E-02   -0.44568E-05 10736   0.151E-02    0.277E-02
RMM:  10    -0.391738976864E+03   -0.13843E-02   -0.61892E-05 10669   0.150E-02    0.302E-02
RMM:  11    -0.391740588975E+03   -0.16121E-02   -0.11292E-04 11447   0.150E-02    0.164E-02
RMM:  12    -0.391741578843E+03   -0.98987E-03   -0.85216E-05 10759   0.133E-02    0.958E-03
RMM:  13    -0.391742234508E+03   -0.65566E-03   -0.63153E-05 10500   0.112E-02    0.645E-03
RMM:  14    -0.391742683100E+03   -0.44859E-03   -0.69983E-05 10779   0.118E-02    0.410E-03
RMM:  15    -0.391742700253E+03   -0.17153E-04   -0.21377E-05  9917   0.969E-03    0.204E-03
RMM:  16    -0.391742701248E+03   -0.99452E-06   -0.60421E-06  8881   0.674E-03
  19 F= -.39174270E+03 E0= -.39173914E+03  d E =-.374772E-01  mag=    42.0003
       N       E                     dE             d eps       ncg     rms          rms(c)
DAV:   1    -0.391540446311E+03    0.20225E+00   -0.20437E+01 14720   0.980E+00    0.334E+00
RMM:   2    -0.391711680767E+03   -0.17123E+00   -0.63015E-01 15933   0.299E+00    0.179E+00
RMM:   3    -0.391789550118E+03   -0.77869E-01   -0.14264E-01 18833   0.848E-01    0.222E+00
RMM:   4    -0.391757944510E+03    0.31606E-01   -0.14165E-02 17562   0.343E-01    0.467E-01
RMM:   5    -0.391756750003E+03    0.11945E-02   -0.29014E-03 18359   0.134E-01    0.262E-01
RMM:   6    -0.391755820354E+03    0.92965E-03   -0.98563E-04 17377   0.879E-02    0.200E-01
RMM:   7    -0.391755250438E+03    0.56992E-03   -0.29332E-03 19006   0.115E-01    0.759E-02
RMM:   8    -0.391755784244E+03   -0.53381E-03   -0.36442E-04 17332   0.508E-02    0.357E-02
RMM:   9    -0.391756434221E+03   -0.64998E-03   -0.81216E-05 12320   0.194E-02    0.288E-02
RMM:  10    -0.391757148898E+03   -0.71468E-03   -0.26378E-05  9924   0.158E-02    0.222E-02
RMM:  11    -0.391758423920E+03   -0.12750E-02   -0.76362E-05 11314   0.133E-02    0.143E-02
RMM:  12    -0.391759043426E+03   -0.61951E-03   -0.32442E-05 10042   0.131E-02    0.912E-03
RMM:  13    -0.391759455303E+03   -0.41188E-03   -0.21644E-05  9970   0.703E-03    0.712E-03
RMM:  14    -0.391760079489E+03   -0.62419E-03   -0.49832E-05 10429   0.983E-03    0.413E-03
RMM:  15    -0.391760211597E+03   -0.13211E-03   -0.20917E-05  9984   0.890E-03    0.247E-03
RMM:  16    -0.391760235820E+03   -0.24223E-04   -0.11756E-05  9182   0.702E-03    0.135E-03
RMM:  17    -0.391760240104E+03   -0.42840E-05   -0.48238E-06  8717   0.616E-03
  20 F= -.39176024E+03 E0= -.39175636E+03  d E =-.175389E-01  mag=    42.0004
       N       E                     dE             d eps       ncg     rms          rms(c)
DAV:   1    -0.391758440835E+03    0.17950E-02   -0.18531E-01 15184   0.931E-01    0.314E-01
RMM:   2    -0.391759924747E+03   -0.14839E-02   -0.52798E-03 16081   0.269E-01    0.164E-01
RMM:   3    -0.391760581012E+03   -0.65626E-03   -0.10956E-03 18495   0.743E-02    0.200E-01
RMM:   4    -0.391760328580E+03    0.25243E-03   -0.97622E-05 13587   0.299E-02    0.396E-02
RMM:   5    -0.391760309184E+03    0.19396E-04   -0.17045E-05  9551   0.138E-02    0.240E-02
RMM:   6    -0.391760281016E+03    0.28169E-04   -0.15643E-05  9156   0.146E-02    0.178E-02
RMM:   7    -0.391760265252E+03    0.15764E-04   -0.22661E-05  9511   0.145E-02    0.688E-03
RMM:   8    -0.391760278487E+03   -0.13235E-04   -0.86816E-06  8423   0.124E-02    0.385E-03
RMM:   9    -0.391760296227E+03   -0.17740E-04   -0.37568E-06  8049   0.691E-03    0.295E-03
RMM:  10    -0.391760313976E+03   -0.17749E-04   -0.15866E-06  8207   0.517E-03    0.249E-03
RMM:  11    -0.391760338972E+03   -0.24996E-04   -0.12774E-06  7791   0.301E-03    0.181E-03
RMM:  12    -0.391760362168E+03   -0.23196E-04   -0.14029E-06  8226   0.297E-03    0.128E-03
RMM:  13    -0.391760368005E+03   -0.58380E-05   -0.71238E-07  6224   0.223E-03
  21 F= -.39176037E+03 E0= -.39175647E+03  d E =-.176668E-01  mag=    42.0004
       N       E                     dE             d eps       ncg     rms          rms(c)
DAV:   1    -0.391670600791E+03    0.89761E-01   -0.95971E+00 14752   0.665E+00    0.224E+00
RMM:   2    -0.391748078351E+03   -0.77478E-01   -0.27481E-01 15693   0.198E+00    0.116E+00
RMM:   3    -0.391777158295E+03   -0.29080E-01   -0.59487E-02 18848   0.529E-01    0.965E-01
RMM:   4    -0.391770111120E+03    0.70472E-02   -0.36788E-03 17587   0.177E-01    0.299E-01
RMM:   5    -0.391769720485E+03    0.39064E-03   -0.90904E-04 18000   0.761E-02    0.159E-01
RMM:   6    -0.391769598041E+03    0.12244E-03   -0.57408E-04 17716   0.633E-02    0.104E-01
RMM:   7    -0.391769845176E+03   -0.24713E-03   -0.10056E-03 19057   0.621E-02    0.328E-02
RMM:   8    -0.391770021906E+03   -0.17673E-03   -0.10911E-04 14655   0.267E-02    0.193E-02
RMM:   9    -0.391770120698E+03   -0.98792E-04   -0.12888E-05  9414   0.121E-02    0.114E-02
RMM:  10    -0.391770179030E+03   -0.58332E-04   -0.69784E-06  9264   0.107E-02    0.633E-03
RMM:  11    -0.391770261029E+03   -0.81999E-04   -0.72453E-06  9332   0.655E-03    0.709E-03
RMM:  12    -0.391770302542E+03   -0.41513E-04   -0.42442E-06  9228   0.636E-03    0.604E-03
RMM:  13    -0.391770310027E+03   -0.74857E-05   -0.21313E-06  8851   0.396E-03
  22 F= -.39177031E+03 E0= -.39176585E+03  d E =-.994202E-02  mag=    42.0003
       N       E                     dE             d eps       ncg     rms          rms(c)
DAV:   1    -0.391762918615E+03    0.73839E-02   -0.77679E-01 14904   0.189E+00    0.630E-01
RMM:   2    -0.391769083139E+03   -0.61645E-02   -0.21179E-02 15773   0.542E-01    0.332E-01
RMM:   3    -0.391772271645E+03   -0.31885E-02   -0.45770E-03 18940   0.154E-01    0.458E-01
RMM:   4    -0.391770683303E+03    0.15883E-02   -0.45810E-04 16490   0.616E-02    0.630E-02
RMM:   5    -0.391770711056E+03   -0.27753E-04   -0.91955E-05 13561   0.240E-02    0.437E-02
RMM:   6    -0.391770720653E+03   -0.95964E-05   -0.48141E-05 12430   0.206E-02
  23 F= -.39177072E+03 E0= -.39176612E+03  d E =-.103526E-01  mag=    42.0002
       N       E                     dE             d eps       ncg     rms          rms(c)
DAV:   1    -0.391725796022E+03    0.44915E-01   -0.60095E+00 14704   0.525E+00    0.154E+00
RMM:   2    -0.391766739661E+03   -0.40944E-01   -0.17010E-01 15530   0.152E+00    0.834E-01
RMM:   3    -0.391789308156E+03   -0.22568E-01   -0.36015E-02 18889   0.431E-01    0.138E+00
RMM:   4    -0.391776637404E+03    0.12671E-01   -0.38726E-03 17508   0.177E-01    0.183E-01
RMM:   5    -0.391776710616E+03   -0.73212E-04   -0.77019E-04 18117   0.646E-02    0.120E-01
RMM:   6    -0.391776239616E+03    0.47100E-03   -0.50129E-04 17857   0.531E-02    0.812E-02
RMM:   7    -0.391775957316E+03    0.28230E-03   -0.64736E-04 18639   0.531E-02    0.397E-02
RMM:   8    -0.391775966852E+03   -0.95361E-05   -0.53153E-05 11234   0.216E-02
  24 F= -.39177597E+03 E0= -.39177138E+03  d E =-.524620E-02  mag=    42.0002
       N       E                     dE             d eps       ncg     rms          rms(c)
DAV:   1    -0.391754546247E+03    0.21411E-01   -0.26767E+00 15080   0.350E+00    0.102E+00
RMM:   2    -0.391772692786E+03   -0.18147E-01   -0.74866E-02 15540   0.101E+00    0.547E-01
RMM:   3    -0.391782139544E+03   -0.94468E-02   -0.15373E-02 18939   0.284E-01    0.902E-01
RMM:   4    -0.391776917222E+03    0.52223E-02   -0.16594E-03 17293   0.115E-01    0.121E-01
RMM:   5    -0.391776916138E+03    0.10845E-05   -0.30985E-04 16546   0.421E-02    0.788E-02
RMM:   6    -0.391776737137E+03    0.17900E-03   -0.23674E-04 16832   0.379E-02    0.535E-02
RMM:   7    -0.391776766316E+03   -0.29179E-04   -0.26799E-04 17438   0.364E-02    0.262E-02
RMM:   8    -0.391776857217E+03   -0.90901E-04   -0.21094E-05  9742   0.162E-02    0.157E-02
RMM:   9    -0.391777055839E+03   -0.19862E-03   -0.13585E-05  9341   0.118E-02    0.108E-02
RMM:  10    -0.391777300980E+03   -0.24514E-03   -0.13725E-05  9350   0.923E-03    0.144E-02
RMM:  11    -0.391777618119E+03   -0.31714E-03   -0.19773E-05  9462   0.806E-03    0.902E-03
RMM:  12    -0.391777934148E+03   -0.31603E-03   -0.24482E-05  9532   0.708E-03    0.575E-03
RMM:  13    -0.391778106138E+03   -0.17199E-03   -0.15725E-05  9289   0.658E-03    0.353E-03
RMM:  14    -0.391778293598E+03   -0.18746E-03   -0.22561E-05  9186   0.548E-03    0.245E-03
RMM:  15    -0.391778370181E+03   -0.76583E-04   -0.19104E-05  9317   0.621E-03    0.237E-03
RMM:  16    -0.391778369027E+03    0.11533E-05   -0.53169E-06  8682   0.459E-03
  25 F= -.39177837E+03 E0= -.39177382E+03  d E =-.764837E-02  mag=    42.0002
       N       E                     dE             d eps       ncg     rms          rms(c)
DAV:   1    -0.391737251307E+03    0.41119E-01   -0.43067E+00 14840   0.437E+00    0.147E+00
RMM:   2    -0.391771977993E+03   -0.34727E-01   -0.12411E-01 15679   0.130E+00    0.820E-01
RMM:   3    -0.391793363692E+03   -0.21386E-01   -0.28100E-02 18688   0.394E-01    0.141E+00
RMM:   4    -0.391780204972E+03    0.13159E-01   -0.39675E-03 17459   0.180E-01    0.171E-01
RMM:   5    -0.391780477006E+03   -0.27203E-03   -0.79581E-04 18048   0.659E-02    0.107E-01
RMM:   6    -0.391780301512E+03    0.17549E-03   -0.23565E-04 16530   0.438E-02    0.778E-02
RMM:   7    -0.391780214007E+03    0.87505E-04   -0.53736E-04 18754   0.477E-02    0.382E-02
RMM:   8    -0.391780234875E+03   -0.20868E-04   -0.65187E-05 11705   0.232E-02    0.158E-02
RMM:   9    -0.391780292947E+03   -0.58072E-04   -0.22753E-05  9535   0.137E-02    0.953E-03
RMM:  10    -0.391780358737E+03   -0.65790E-04   -0.78045E-06  9210   0.111E-02    0.967E-03
RMM:  11    -0.391780437685E+03   -0.78949E-04   -0.56417E-06  9202   0.678E-03    0.688E-03
RMM:  12    -0.391780547587E+03   -0.10990E-03   -0.64390E-06  9273   0.566E-03    0.356E-03
RMM:  13    -0.391780594291E+03   -0.46703E-04   -0.31396E-06  8975   0.471E-03    0.300E-03
RMM:  14    -0.391780657322E+03   -0.63031E-04   -0.30576E-06  8442   0.327E-03    0.301E-03
RMM:  15    -0.391780753251E+03   -0.95929E-04   -0.75664E-06  8885   0.375E-03    0.154E-03
RMM:  16    -0.391780781403E+03   -0.28152E-04   -0.39506E-06  8592   0.364E-03    0.865E-04
RMM:  17    -0.391780785846E+03   -0.44435E-05   -0.19417E-06  7262   0.292E-03
  26 F= -.39178079E+03 E0= -.39177656E+03  d E =-.241682E-02  mag=    42.0003
       N       E                     dE             d eps       ncg     rms          rms(c)
DAV:   1    -0.391780115379E+03    0.66602E-03   -0.73690E-02 15144   0.570E-01    0.189E-01
RMM:   2    -0.391780658363E+03   -0.54298E-03   -0.20012E-03 15701   0.164E-01    0.986E-02
RMM:   3    -0.391780800013E+03   -0.14165E-03   -0.40843E-04 17464   0.461E-02    0.116E-01
RMM:   4    -0.391780773736E+03    0.26276E-04   -0.28798E-05 10372   0.177E-02    0.238E-02
RMM:   5    -0.391780747124E+03    0.26613E-04   -0.80627E-06  9079   0.120E-02    0.131E-02
RMM:   6    -0.391780734367E+03    0.12756E-04   -0.80075E-06  8835   0.977E-03    0.109E-02
RMM:   7    -0.391780742681E+03   -0.83141E-05   -0.94725E-06  8994   0.946E-03
  27 F= -.39178074E+03 E0= -.39177646E+03  d E =-.237365E-02  mag=    42.0003
       N       E                     dE             d eps       ncg     rms          rms(c)
DAV:   1    -0.391740706220E+03    0.40028E-01   -0.36335E+00 14832   0.391E+00    0.149E+00
RMM:   2    -0.391776147300E+03   -0.35441E-01   -0.10197E-01 15723   0.119E+00    0.967E-01
RMM:   3    -0.391816398664E+03   -0.40251E-01   -0.31137E-02 18374   0.447E-01    0.225E+00
RMM:   4    -0.391781775530E+03    0.34623E-01   -0.83539E-03 17268   0.268E-01    0.142E-01
RMM:   5    -0.391782865397E+03   -0.10899E-02   -0.14744E-03 17927   0.870E-02    0.992E-02
RMM:   6    -0.391782751216E+03    0.11418E-03   -0.20380E-04 15881   0.403E-02    0.691E-02
RMM:   7    -0.391782692430E+03    0.58786E-04   -0.50519E-04 18749   0.464E-02    0.419E-02
RMM:   8    -0.391782711355E+03   -0.18925E-04   -0.70204E-05 11949   0.245E-02    0.210E-02
RMM:   9    -0.391782805808E+03   -0.94452E-04   -0.24007E-05  9652   0.139E-02    0.117E-02
RMM:  10    -0.391782897449E+03   -0.91642E-04   -0.10340E-05  9289   0.121E-02    0.121E-02
RMM:  11    -0.391783013461E+03   -0.11601E-03   -0.73859E-06  9257   0.756E-03    0.723E-03
RMM:  12    -0.391783201763E+03   -0.18830E-03   -0.11561E-05  9359   0.658E-03    0.535E-03
RMM:  13    -0.391783292586E+03   -0.90822E-04   -0.64480E-06  9207   0.586E-03    0.426E-03
RMM:  14    -0.391783403576E+03   -0.11099E-03   -0.69472E-06  8653   0.425E-03    0.288E-03
RMM:  15    -0.391783522138E+03   -0.11856E-03   -0.10455E-05  9011   0.465E-03    0.176E-03
RMM:  16    -0.391783573679E+03   -0.51541E-04   -0.88703E-06  8856   0.435E-03    0.124E-03
RMM:  17    -0.391783574561E+03   -0.88185E-06   -0.27611E-06  8269   0.401E-03
  28 F= -.39178357E+03 E0= -.39177936E+03  d E =-.283188E-02  mag=    42.0003
       N       E                     dE             d eps       ncg     rms          rms(c)
DAV:   1    -0.391781481163E+03    0.20925E-02   -0.19469E-01 15272   0.904E-01    0.342E-01
RMM:   2    -0.391783324794E+03   -0.18436E-02   -0.50662E-03 15785   0.263E-01    0.222E-01
RMM:   3    -0.391785496210E+03   -0.21714E-02   -0.15743E-03 18002   0.101E-01    0.543E-01
RMM:   4    -0.391783590300E+03    0.19059E-02   -0.45082E-04 15994   0.629E-02    0.310E-02
RMM:   5    -0.391783669699E+03   -0.79399E-04   -0.69258E-05 11943   0.213E-02    0.211E-02
RMM:   6    -0.391783661265E+03    0.84340E-05   -0.14965E-05  9327   0.131E-02
  29 F= -.39178366E+03 E0= -.39177948E+03  d E =-.291858E-02  mag=    42.0004
       N       E                     dE             d eps       ncg     rms          rms(c)
DAV:   1    -0.391746285542E+03    0.37384E-01   -0.32388E+00 15064   0.370E+00    0.145E+00
RMM:   2    -0.391776661543E+03   -0.30376E-01   -0.89459E-02 15946   0.112E+00    0.760E-01
RMM:   3    -0.391790176267E+03   -0.13515E-01   -0.20789E-02 19091   0.308E-01    0.899E-01
RMM:   4    -0.391785069438E+03    0.51068E-02   -0.19857E-03 17099   0.127E-01    0.182E-01
RMM:   5    -0.391784637100E+03    0.43234E-03   -0.38716E-04 16645   0.501E-02    0.103E-01
RMM:   6    -0.391784086459E+03    0.55064E-03   -0.26558E-04 17099   0.412E-02    0.809E-02
RMM:   7    -0.391783681035E+03    0.40542E-03   -0.45128E-04 18538   0.451E-02    0.324E-02
RMM:   8    -0.391783823287E+03   -0.14225E-03   -0.38585E-05 10643   0.189E-02    0.182E-02
RMM:   9    -0.391784124473E+03   -0.30119E-03   -0.19156E-05  9533   0.139E-02    0.175E-02
RMM:  10    -0.391784516927E+03   -0.39245E-03   -0.19298E-05  9530   0.110E-02    0.214E-02
RMM:  11    -0.391784987766E+03   -0.47084E-03   -0.31659E-05  9903   0.995E-03    0.119E-02
RMM:  12    -0.391785529592E+03   -0.54183E-03   -0.55706E-05 10313   0.940E-03    0.583E-03
RMM:  13    -0.391785733860E+03   -0.20427E-03   -0.25911E-05  9654   0.923E-03    0.419E-03
RMM:  14    -0.391785948701E+03   -0.21484E-03   -0.40707E-05  9931   0.731E-03    0.249E-03
RMM:  15    -0.391785972393E+03   -0.23691E-04   -0.16450E-05  9458   0.858E-03    0.237E-03
RMM:  16    -0.391785970968E+03    0.14245E-05   -0.52870E-06  8583   0.488E-03
  30 F= -.39178597E+03 E0= -.39178177E+03  d E =-.230970E-02  mag=    42.0004
       N       E                     dE             d eps       ncg     rms          rms(c)
DAV:   1    -0.391783496329E+03    0.24761E-02   -0.21499E-01 15488   0.953E-01    0.369E-01
RMM:   2    -0.391785482970E+03   -0.19866E-02   -0.56653E-03 16002   0.280E-01    0.195E-01
RMM:   3    -0.391786513186E+03   -0.10302E-02   -0.13244E-03 18489   0.806E-02    0.284E-01
RMM:   4    -0.391785995472E+03    0.51771E-03   -0.16561E-04 14630   0.375E-02    0.413E-02
RMM:   5    -0.391785981806E+03    0.13666E-04   -0.24196E-05 10101   0.156E-02    0.253E-02
RMM:   6    -0.391785914591E+03    0.67215E-04   -0.23435E-05  9546   0.146E-02    0.207E-02
RMM:   7    -0.391785867207E+03    0.47384E-04   -0.29866E-05 10243   0.164E-02    0.887E-03
RMM:   8    -0.391785883556E+03   -0.16349E-04   -0.94327E-06  8879   0.122E-02    0.577E-03
RMM:   9    -0.391785920088E+03   -0.36532E-04   -0.41809E-06  8544   0.756E-03    0.397E-03
RMM:  10    -0.391785963603E+03   -0.43514E-04   -0.23830E-06  8701   0.511E-03    0.454E-03
RMM:  11    -0.391786013673E+03   -0.50070E-04   -0.28237E-06  8393   0.357E-03    0.291E-03
RMM:  12    -0.391786059740E+03   -0.46067E-04   -0.41738E-06  8843   0.356E-03    0.174E-03
RMM:  13    -0.391786080028E+03   -0.20288E-04   -0.24619E-06  8302   0.319E-03    0.133E-03
RMM:  14    -0.391786093352E+03   -0.13324E-04   -0.23735E-06  7922   0.290E-03    0.104E-03
RMM:  15    -0.391786095986E+03   -0.26344E-05   -0.24053E-06  7589   0.293E-03
  31 F= -.39178610E+03 E0= -.39178189E+03  d E =-.243472E-02  mag=    42.0004
       N       E                     dE             d eps       ncg     rms          rms(c)
DAV:   1    -0.391748966537E+03    0.37127E-01   -0.34758E+00 14768   0.393E+00    0.140E+00
RMM:   2    -0.391779797037E+03   -0.30831E-01   -0.98029E-02 15734   0.117E+00    0.827E-01
RMM:   3    -0.391807217569E+03   -0.27421E-01   -0.26630E-02 18521   0.389E-01    0.165E+00
RMM:   4    -0.391786521780E+03    0.20696E-01   -0.51847E-03 17273   0.211E-01    0.130E-01
RMM:   5    -0.391787047757E+03   -0.52598E-03   -0.98151E-04 17809   0.662E-02    0.959E-02
RMM:   6    -0.391786896473E+03    0.15128E-03   -0.15624E-04 15089   0.347E-02    0.668E-02
RMM:   7    -0.391786625214E+03    0.27126E-03   -0.50695E-04 18637   0.455E-02    0.304E-02
RMM:   8    -0.391786621062E+03    0.41517E-05   -0.39652E-05 10718   0.202E-02
  32 F= -.39178662E+03 E0= -.39178258E+03  d E =-.525076E-03  mag=    42.0004
       N       E                     dE             d eps       ncg     rms          rms(c)
DAV:   1    -0.391779342297E+03    0.72829E-02   -0.68205E-01 15160   0.174E+00    0.607E-01
RMM:   2    -0.391785345268E+03   -0.60030E-02   -0.18336E-02 15708   0.509E-01    0.334E-01
RMM:   3    -0.391789394361E+03   -0.40491E-02   -0.45835E-03 18894   0.157E-01    0.643E-01
RMM:   4    -0.391786760075E+03    0.26343E-02   -0.70861E-04 16591   0.771E-02    0.566E-02
RMM:   5    -0.391786945747E+03   -0.18567E-03   -0.12724E-04 14011   0.267E-02    0.411E-02
RMM:   6    -0.391787005010E+03   -0.59263E-04   -0.38845E-05 10731   0.179E-02    0.276E-02
RMM:   7    -0.391787087356E+03   -0.82346E-04   -0.12013E-04 14199   0.228E-02    0.120E-02
RMM:   8    -0.391787097831E+03   -0.10474E-04   -0.14798E-05  9282   0.168E-02    0.116E-02
RMM:   9    -0.391787099444E+03   -0.16137E-05   -0.61459E-06  9140   0.775E-03
  33 F= -.39178710E+03 E0= -.39178296E+03  d E =-.100346E-02  mag=    42.0004
       N       E                     dE             d eps       ncg     rms          rms(c)
DAV:   1    -0.391783522860E+03    0.35750E-02   -0.34220E-01 15168   0.123E+00    0.432E-01
RMM:   2    -0.391786536141E+03   -0.30133E-02   -0.91861E-03 15748   0.359E-01    0.261E-01
RMM:   3    -0.391789512009E+03   -0.29759E-02   -0.25532E-03 18303   0.124E-01    0.597E-01
RMM:   4    -0.391787104219E+03    0.24078E-02   -0.59141E-04 16403   0.707E-02    0.393E-02
RMM:   5    -0.391787197185E+03   -0.92966E-04   -0.99234E-05 12755   0.237E-02    0.288E-02
RMM:   6    -0.391787180142E+03    0.17042E-04   -0.18811E-05  9488   0.146E-02    0.202E-02
RMM:   7    -0.391787147761E+03    0.32381E-04   -0.53395E-05 12866   0.168E-02    0.961E-03
RMM:   8    -0.391787148370E+03   -0.60836E-06   -0.84853E-06  8959   0.128E-02
  34 F= -.39178715E+03 E0= -.39178306E+03  d E =-.105238E-02  mag=    42.0004
       N       E                     dE             d eps       ncg     rms          rms(c)
DAV:   1    -0.391762998888E+03    0.24149E-01   -0.24511E+00 14792   0.333E+00    0.111E+00
RMM:   2    -0.391782311242E+03   -0.19312E-01   -0.69950E-02 15625   0.100E+00    0.613E-01
RMM:   3    -0.391795337940E+03   -0.13027E-01   -0.15900E-02 18929   0.297E-01    0.105E+00
RMM:   4    -0.391787919434E+03    0.74185E-02   -0.22851E-03 17292   0.132E-01    0.118E-01
RMM:   5    -0.391788179069E+03   -0.25964E-03   -0.40792E-04 16676   0.472E-02    0.786E-02
RMM:   6    -0.391788117933E+03    0.61136E-04   -0.11500E-04 14433   0.303E-02    0.595E-02
RMM:   7    -0.391788022439E+03    0.95494E-04   -0.34730E-04 18324   0.397E-02    0.295E-02
RMM:   8    -0.391787997846E+03    0.24593E-04   -0.27800E-05  9965   0.185E-02    0.130E-02
RMM:   9    -0.391787994198E+03    0.36481E-05   -0.12734E-05  9294   0.129E-02
  35 F= -.39178799E+03 E0= -.39178401E+03  d E =-.845829E-03  mag=    42.0004
       N       E                     dE             d eps       ncg     rms          rms(c)
DAV:   1    -0.391787233636E+03    0.76421E-03   -0.74556E-02 15160   0.582E-01    0.194E-01
RMM:   2    -0.391787857442E+03   -0.62381E-03   -0.20942E-03 15638   0.172E-01    0.991E-02
RMM:   3    -0.391788119490E+03   -0.26205E-03   -0.45491E-04 17426   0.477E-02    0.103E-01
RMM:   4    -0.391788030771E+03    0.88719E-04   -0.22129E-05  9894   0.165E-02    0.199E-02
RMM:   5    -0.391788034369E+03   -0.35977E-05   -0.76820E-06  8880   0.120E-02
  36 F= -.39178803E+03 E0= -.39178406E+03  d E =-.885999E-03  mag=    42.0004
       N       E                     dE             d eps       ncg     rms          rms(c)
DAV:   1    -0.391770838612E+03    0.17192E-01   -0.18154E+00 14704   0.288E+00    0.942E-01
RMM:   2    -0.391790131010E+03   -0.19292E-01   -0.54691E-02 15676   0.870E-01    0.109E+00
RMM:   3    -0.391817242749E+03   -0.27112E-01   -0.19950E-02 17935   0.402E-01    0.210E+00
RMM:   4    -0.391787677678E+03    0.29565E-01   -0.64030E-03 16798   0.254E-01    0.110E-01
RMM:   5    -0.391788684704E+03   -0.10070E-02   -0.12119E-03 17775   0.769E-02    0.733E-02
RMM:   6    -0.391788718576E+03   -0.33872E-04   -0.10569E-04 14230   0.293E-02    0.511E-02
RMM:   7    -0.391788663936E+03    0.54639E-04   -0.27520E-04 18107   0.381E-02    0.284E-02
RMM:   8    -0.391788648931E+03    0.15005E-04   -0.32984E-05 10791   0.182E-02    0.189E-02
RMM:   9    -0.391788647015E+03    0.19166E-05   -0.11665E-05  9229   0.127E-02
  37 F= -.39178865E+03 E0= -.39178473E+03  d E =-.612646E-03  mag=    42.0005
       N       E                     dE             d eps       ncg     rms          rms(c)
DAV:   1    -0.391788643526E+03    0.54052E-05   -0.14191E-03 16824   0.827E-02    0.281E-02
RMM:   2    -0.391788691271E+03   -0.47745E-04   -0.53449E-05 12592   0.263E-02    0.899E-02
RMM:   3    -0.391788667567E+03    0.23704E-04   -0.17423E-05  9644   0.176E-02    0.360E-02
RMM:   4    -0.391788668053E+03   -0.48674E-06   -0.54188E-06  8414   0.110E-02
  38 F= -.39178867E+03 E0= -.39178476E+03  d E =-.633685E-03  mag=    42.0005
       N       E                     dE             d eps       ncg     rms          rms(c)
DAV:   1    -0.391778625942E+03    0.10042E-01   -0.89368E-01 14880   0.198E+00    0.734E-01
RMM:   2    -0.391787169260E+03   -0.85433E-02   -0.24867E-02 15957   0.589E-01    0.458E-01
RMM:   3    -0.391796364083E+03   -0.91948E-02   -0.70981E-03 18516   0.209E-01    0.108E+00
RMM:   4    -0.391788562573E+03    0.78015E-02   -0.18705E-03 16899   0.125E-01    0.666E-02
RMM:   5    -0.391788873428E+03   -0.31085E-03   -0.34241E-04 15800   0.414E-02    0.482E-02
RMM:   6    -0.391788820102E+03    0.53326E-04   -0.54086E-05 12470   0.216E-02    0.339E-02
RMM:   7    -0.391788731243E+03    0.88859E-04   -0.12877E-04 14717   0.258E-02    0.193E-02
RMM:   8    -0.391788725064E+03    0.61785E-05   -0.21624E-05  9559   0.175E-02
  39 F= -.39178873E+03 E0= -.39178484E+03  d E =-.570110E-04  mag=    42.0005
       N       E                     dE             d eps       ncg     rms          rms(c)
DAV:   1    -0.391788747810E+03   -0.16568E-04   -0.13135E-03 15952   0.776E-02    0.256E-02
RMM:   2    -0.391788799452E+03   -0.51642E-04   -0.34593E-05 10503   0.224E-02    0.170E-02
RMM:   3    -0.391788844399E+03   -0.44946E-04   -0.11516E-05  9006   0.138E-02    0.399E-02
RMM:   4    -0.391788838309E+03    0.60901E-05   -0.52342E-06  8422   0.104E-02
  40 F= -.39178884E+03 E0= -.39178496E+03  d E =-.170255E-03  mag=    42.0005
       N       E                     dE             d eps       ncg     rms          rms(c)
DAV:   1    -0.391781221110E+03    0.76233E-02   -0.70475E-01 14736   0.178E+00    0.639E-01
RMM:   2    -0.391787334287E+03   -0.61132E-02   -0.19598E-02 16282   0.520E-01    0.322E-01
RMM:   3    -0.391789380336E+03   -0.20460E-02   -0.40325E-03 18937   0.129E-01    0.190E-01
RMM:   4    -0.391789046488E+03    0.33385E-03   -0.18501E-04 15655   0.388E-02    0.734E-02
RMM:   5    -0.391789011615E+03    0.34873E-04   -0.33017E-05 10658   0.173E-02    0.429E-02
RMM:   6    -0.391789000446E+03    0.11168E-04   -0.63256E-05 13495   0.221E-02    0.289E-02
RMM:   7    -0.391789048467E+03   -0.48021E-04   -0.93398E-05 14076   0.208E-02    0.970E-03
RMM:   8    -0.391789087199E+03   -0.38732E-04   -0.10926E-05  9156   0.152E-02    0.547E-03
RMM:   9    -0.391789133050E+03   -0.45850E-04   -0.51373E-06  9033   0.717E-03    0.611E-03
RMM:  10    -0.391789184858E+03   -0.51808E-04   -0.34189E-06  9058   0.591E-03    0.453E-03
RMM:  11    -0.391789245237E+03   -0.60379E-04   -0.41121E-06  8888   0.430E-03    0.256E-03
RMM:  12    -0.391789282989E+03   -0.37752E-04   -0.28880E-06  8656   0.412E-03    0.258E-03
RMM:  13    -0.391789307777E+03   -0.24788E-04   -0.21479E-06  7611   0.300E-03    0.231E-03
RMM:  14    -0.391789344275E+03   -0.36497E-04   -0.39523E-06  8026   0.315E-03    0.119E-03
RMM:  15    -0.391789350712E+03   -0.64372E-05   -0.22338E-06  7791   0.321E-03
  41 F= -.39178935E+03 E0= -.39178543E+03  d E =-.512403E-03  mag=    42.0005
       N       E                     dE             d eps       ncg     rms          rms(c)
DAV:   1    -0.391789349738E+03   -0.54634E-05   -0.64795E-06 12056   0.604E-03    0.216E-03
RMM:   2    -0.391789349722E+03    0.15782E-07   -0.12296E-06  7825   0.513E-03
  42 F= -.39178935E+03 E0= -.39178543E+03  d E =-.511414E-03  mag=    42.0005
       N       E                     dE             d eps       ncg     rms          rms(c)
DAV:   1    -0.391786794256E+03    0.25555E-02   -0.43444E-01 14512   0.150E+00    0.310E-01
RMM:   2    -0.391789128013E+03   -0.23338E-02   -0.14612E-02 15728   0.445E-01    0.188E-01
RMM:   3    -0.391790780603E+03   -0.16526E-02   -0.25123E-03 18451   0.129E-01    0.428E-01
RMM:   4    -0.391789451676E+03    0.13289E-02   -0.34314E-04 16100   0.533E-02    0.437E-02
RMM:   5    -0.391789480950E+03   -0.29274E-04   -0.57829E-05 11647   0.195E-02    0.338E-02
RMM:   6    -0.391789475147E+03    0.58025E-05   -0.26061E-05  9897   0.167E-02
  43 F= -.39178948E+03 E0= -.39178552E+03  d E =-.125425E-03  mag=    42.0005
       N       E                     dE             d eps       ncg     rms          rms(c)
DAV:   1    -0.391789412248E+03    0.68701E-04   -0.10100E-02 15288   0.230E-01    0.524E-02
RMM:   2    -0.391789474041E+03   -0.61792E-04   -0.31115E-04 16479   0.625E-02    0.342E-02
RMM:   3    -0.391789544575E+03   -0.70534E-04   -0.43143E-05 11852   0.202E-02    0.831E-02
RMM:   4    -0.391789487851E+03    0.56724E-04   -0.11070E-05  8682   0.147E-02    0.651E-03
RMM:   5    -0.391789495461E+03   -0.76097E-05   -0.40807E-06  7766   0.736E-03
  44 F= -.39178950E+03 E0= -.39178554E+03  d E =-.145739E-03  mag=    42.0005
       N       E                     dE             d eps       ncg     rms          rms(c)
DAV:   1    -0.391789484907E+03    0.29442E-05   -0.63065E-03 14672   0.181E-01    0.384E-02
RMM:   2    -0.391789535193E+03   -0.50285E-04   -0.21694E-04 15864   0.528E-02    0.210E-02
RMM:   3    -0.391789554784E+03   -0.19592E-04   -0.22262E-05  9620   0.152E-02    0.402E-02
RMM:   4    -0.391789548632E+03    0.61524E-05   -0.77947E-06  8547   0.139E-02
  45 F= -.39178955E+03 E0= -.39178560E+03  d E =-.198910E-03  mag=    42.0005
       N       E                     dE             d eps       ncg     rms          rms(c)
DAV:   1    -0.391788030075E+03    0.15247E-02   -0.21908E-01 14520   0.106E+00    0.263E-01
RMM:   2    -0.391789390621E+03   -0.13605E-02   -0.68800E-03 15844   0.305E-01    0.177E-01
RMM:   3    -0.391790987731E+03   -0.15971E-02   -0.14799E-03 18216   0.100E-01    0.442E-01
RMM:   4    -0.391789569346E+03    0.14184E-02   -0.32434E-04 15801   0.519E-02    0.296E-02
RMM:   5    -0.391789625284E+03   -0.55938E-04   -0.50052E-05 11314   0.184E-02    0.223E-02
RMM:   6    -0.391789624744E+03    0.53946E-06   -0.13481E-05  9109   0.125E-02
  46 F= -.39178962E+03 E0= -.39178566E+03  d E =-.761123E-04  mag=    42.0005
       N       E                     dE             d eps       ncg     rms          rms(c)
DAV:   1    -0.391787367367E+03    0.22579E-02   -0.29676E-01 14800   0.123E+00    0.308E-01
RMM:   2    -0.391789194133E+03   -0.18268E-02   -0.91421E-03 15873   0.351E-01    0.208E-01
RMM:   3    -0.391791421306E+03   -0.22272E-02   -0.19887E-03 18304   0.116E-01    0.521E-01
RMM:   4    -0.391789423626E+03    0.19977E-02   -0.44821E-04 16267   0.608E-02    0.353E-02
RMM:   5    -0.391789499445E+03   -0.75820E-04   -0.73084E-05 11843   0.207E-02    0.273E-02
RMM:   6    -0.391789497927E+03    0.15185E-05   -0.17939E-05  9311   0.144E-02
  47 F= -.39178950E+03 E0= -.39178552E+03  d E =0.507054E-04  mag=    42.0005
       N       E                     dE             d eps       ncg     rms          rms(c)
DAV:   1    -0.391788197474E+03    0.13020E-02   -0.20418E-01 14776   0.102E+00    0.252E-01
RMM:   2    -0.391789490536E+03   -0.12931E-02   -0.62987E-03 15736   0.292E-01    0.158E-01
RMM:   3    -0.391790572602E+03   -0.10821E-02   -0.13294E-03 18516   0.929E-02    0.374E-01
RMM:   4    -0.391789684401E+03    0.88820E-03   -0.23955E-04 15213   0.444E-02    0.304E-02
RMM:   5    -0.391789749497E+03   -0.65096E-04   -0.37936E-05 10921   0.173E-02    0.233E-02
RMM:   6    -0.391789761505E+03   -0.12008E-04   -0.14933E-05  9172   0.131E-02    0.157E-02
RMM:   7    -0.391789784337E+03   -0.22831E-04   -0.26340E-05  9735   0.139E-02    0.783E-03
RMM:   8    -0.391789793249E+03   -0.89129E-05   -0.83553E-06  9007   0.131E-02
  48 F= -.39178979E+03 E0= -.39178581E+03  d E =-.295323E-03  mag=    42.0005
       N       E                     dE             d eps       ncg     rms          rms(c)
DAV:   1    -0.391789695253E+03    0.89083E-04   -0.15938E-02 15000   0.286E-01    0.714E-02
RMM:   2    -0.391789813227E+03   -0.11797E-03   -0.51845E-04 15769   0.834E-02    0.524E-02
RMM:   3    -0.391789943232E+03   -0.13000E-03   -0.10454E-04 14056   0.289E-02    0.135E-01
RMM:   4    -0.391789824898E+03    0.11833E-03   -0.23488E-05 10012   0.184E-02    0.777E-03
RMM:   5    -0.391789838564E+03   -0.13667E-04   -0.71078E-06  8665   0.102E-02    0.613E-03
RMM:   6    -0.391789841659E+03   -0.30945E-05   -0.30178E-06  8242   0.647E-03
  49 F= -.39178984E+03 E0= -.39178586E+03  d E =-.343732E-03  mag=    42.0005
       N       E                     dE             d eps       ncg     rms          rms(c)
DAV:   1    -0.391789398374E+03    0.44019E-03   -0.81585E-02 15056   0.644E-01    0.162E-01
RMM:   2    -0.391790051434E+03   -0.65306E-03   -0.26943E-03 15830   0.190E-01    0.271E-01
RMM:   3    -0.391790679313E+03   -0.62788E-03   -0.74100E-04 17239   0.800E-02    0.340E-01
RMM:   4    -0.391789835363E+03    0.84395E-03   -0.18527E-04 14406   0.436E-02    0.203E-02
RMM:   5    -0.391789863777E+03   -0.28414E-04   -0.32436E-05 10628   0.154E-02    0.149E-02
RMM:   6    -0.391789864561E+03   -0.78402E-06   -0.99515E-06  9088   0.112E-02
  50 F= -.39178986E+03 E0= -.39178590E+03  d E =-.229028E-04  mag=    42.0005
       N       E                     dE             d eps       ncg     rms          rms(c)
DAV:   1    -0.391789736656E+03    0.12712E-03   -0.16303E-02 15440   0.288E-01    0.740E-02
RMM:   2    -0.391789764002E+03   -0.27346E-04   -0.52413E-04 15883   0.825E-02    0.114E-01
RMM:   3    -0.391790013954E+03   -0.24995E-03   -0.14079E-04 14782   0.356E-02    0.161E-01
RMM:   4    -0.391789761998E+03    0.25196E-03   -0.33680E-05 10794   0.209E-02    0.950E-03
RMM:   5    -0.391789774640E+03   -0.12642E-04   -0.85376E-06  8898   0.104E-02    0.727E-03
RMM:   6    -0.391789793106E+03   -0.18466E-04   -0.41022E-06  8727   0.740E-03    0.487E-03
RMM:   7    -0.391789823387E+03   -0.30281E-04   -0.28619E-06  8794   0.550E-03    0.311E-03
RMM:   8    -0.391789853337E+03   -0.29950E-04   -0.17743E-06  8690   0.484E-03    0.252E-03
RMM:   9    -0.391789875537E+03   -0.22200E-04   -0.91417E-07  8193   0.318E-03    0.178E-03
RMM:  10    -0.391789897655E+03   -0.22118E-04   -0.54625E-07  7248   0.232E-03    0.973E-04
RMM:  11    -0.391789929284E+03   -0.31629E-04   -0.47939E-07  6215   0.192E-03    0.705E-04
RMM:  12    -0.391789958954E+03   -0.29670E-04   -0.44021E-07  5338   0.174E-03    0.482E-04
RMM:  13    -0.391789972054E+03   -0.13099E-04   -0.31651E-07  5107   0.169E-03    0.363E-04
RMM:  14    -0.391789983756E+03   -0.11702E-04   -0.26175E-07  4657   0.152E-03    0.269E-04
RMM:  15    -0.391789998904E+03   -0.15149E-04   -0.30151E-07  4815   0.155E-03    0.226E-04
RMM:  16    -0.391790004071E+03   -0.51669E-05   -0.21620E-07  4689   0.157E-03
  51 F= -.39179000E+03 E0= -.39178605E+03  d E =-.162413E-03  mag=    42.0005
       N       E                     dE             d eps       ncg     rms          rms(c)
DAV:   1    -0.391789994832E+03    0.40720E-05   -0.19722E-03 15672   0.100E-01    0.252E-02
RMM:   2    -0.391790019940E+03   -0.25108E-04   -0.58885E-05 12934   0.298E-02    0.412E-02
RMM:   3    -0.391790025796E+03   -0.58563E-05   -0.14181E-05  8796   0.156E-02
  52 F= -.39179003E+03 E0= -.39178613E+03  d E =-.184138E-03  mag=    42.0005
       N       E                     dE             d eps       ncg     rms          rms(c)
DAV:   1    -0.391789622357E+03    0.39758E-03   -0.63027E-02 14624   0.559E-01    0.132E-01
RMM:   2    -0.391789932807E+03   -0.31045E-03   -0.19647E-03 15620   0.157E-01    0.701E-02
RMM:   3    -0.391790002967E+03   -0.70160E-04   -0.36316E-04 17306   0.441E-02    0.861E-02
RMM:   4    -0.391789992428E+03    0.10539E-04   -0.18928E-05  9701   0.154E-02    0.243E-02
RMM:   5    -0.391789971190E+03    0.21238E-04   -0.63685E-06  8795   0.111E-02    0.142E-02
RMM:   6    -0.391789962515E+03    0.86747E-05   -0.49711E-06  8496   0.735E-03
  53 F= -.39178996E+03 E0= -.39178604E+03  d E =0.632814E-04  mag=    42.0005
       N       E                     dE             d eps       ncg     rms          rms(c)
DAV:   1    -0.391789834054E+03    0.13714E-03   -0.16774E-02 14840   0.287E-01    0.684E-02
RMM:   2    -0.391789881968E+03   -0.47914E-04   -0.49241E-04 15323   0.824E-02    0.350E-02
RMM:   3    -0.391789877040E+03    0.49279E-05   -0.76838E-05 13292   0.224E-02
  54 F= -.39178988E+03 E0= -.39178598E+03  d E =0.148756E-03  mag=    42.0005
       N       E                     dE             d eps       ncg     rms          rms(c)
DAV:   1    -0.391789840179E+03    0.41789E-04   -0.75599E-03 14824   0.195E-01    0.516E-02
RMM:   2    -0.391789946262E+03   -0.10608E-03   -0.26868E-04 17470   0.486E-02    0.112E-01
RMM:   3    -0.391789990582E+03   -0.44319E-04   -0.59536E-05 12222   0.248E-02    0.872E-02
RMM:   4    -0.391789949740E+03    0.40842E-04   -0.10603E-05  8964   0.147E-02    0.376E-03
RMM:   5    -0.391789969219E+03   -0.19479E-04   -0.35191E-06  8546   0.702E-03    0.298E-03
RMM:   6    -0.391789981545E+03   -0.12326E-04   -0.17071E-06  8296   0.485E-03    0.184E-03
RMM:   7    -0.391789992181E+03   -0.10636E-04   -0.77674E-07  7291   0.301E-03    0.134E-03
RMM:   8    -0.391790006396E+03   -0.14215E-04   -0.43859E-07  7024   0.234E-03    0.801E-04
RMM:   9    -0.391790019717E+03   -0.13320E-04   -0.22992E-07  6189   0.171E-03    0.610E-04
RMM:  10    -0.391790030402E+03   -0.10685E-04   -0.15895E-07  5313   0.142E-03    0.352E-04
RMM:  11    -0.391790036299E+03   -0.58971E-05   -0.80723E-08  4022   0.127E-03
  55 F= -.39179004E+03 E0= -.39178612E+03  d E =-.105025E-04  mag=    42.0005
