 vasp.5.4.4.18Apr17-6-g9f103f2a35 (build Apr 07 2018 02:38:49) complex          
  
 executed on             LinuxIFC date 2018.06.24  23:01:52
 running on   16 total cores
 distrk:  each k-point on   16 cores,    1 groups
 distr:  one band on NCORES_PER_BAND=   4 cores,    4 groups


--------------------------------------------------------------------------------------------------------


 INCAR:
 POTCAR:   PAW_PBE Mn 06Sep2000                   
 POTCAR:   PAW_PBE O 08Apr2002                    
 POTCAR:   PAW_PBE Mn 06Sep2000                   
  local pseudopotential read in
  partial core-charges read in
  atomic valenz-charges read in
  non local Contribution for L=           2  read in
    real space projection operators read in
  non local Contribution for L=           2  read in
    real space projection operators read in
  non local Contribution for L=           0  read in
    real space projection operators read in
  non local Contribution for L=           0  read in
    real space projection operators read in
  non local Contribution for L=           1  read in
    real space projection operators read in
  non local Contribution for L=           1  read in
    real space projection operators read in
    PAW grid and wavefunctions read in
 
   number of l-projection  operators is LMAX  =           6
   number of lm-projection operators is LMMAX =          18
 
 POTCAR:   PAW_PBE O 08Apr2002                    
  local pseudopotential read in
  atomic valenz-charges read in
  non local Contribution for L=           0  read in
    real space projection operators read in
  non local Contribution for L=           0  read in
    real space projection operators read in
  non local Contribution for L=           1  read in
    real space projection operators read in
  non local Contribution for L=           1  read in
    real space projection operators read in
    PAW grid and wavefunctions read in
 
   number of l-projection  operators is LMAX  =           4
   number of lm-projection operators is LMMAX =           8
 

 ----------------------------------------------------------------------------- 
|                                                                             |
|  ADVICE TO THIS USER RUNNING 'VASP/VAMP'   (HEAR YOUR MASTER'S VOICE ...):  |
|                                                                             |
|      You have a (more or less) 'large supercell' and for larger cells       |
|      it might be more efficient to use real space projection operators      |
|      So try LREAL= Auto  in the INCAR   file.                               |
|      Mind: If you want to do a very accurate calculations keep the          |
|      reciprocal projection scheme          (i.e. LREAL=.FALSE.)             |
|                                                                             |
 ----------------------------------------------------------------------------- 

 PAW_PBE Mn 06Sep2000                   :
 energy of atom  1       EATOM= -416.8732
 kinetic energy error for atom=    0.0024 (will be added to EATOM!!)
 PAW_PBE O 08Apr2002                    :
 energy of atom  2       EATOM= -432.3788
 kinetic energy error for atom=    0.0224 (will be added to EATOM!!)
 
 
 POSCAR: Mn3O4_mp-18759_conventional_standard\(1\
  positions in direct lattice
  No initial velocities read in
 exchange correlation table for  LEXCH =        8
   RHO(1)=    0.500       N(1)  =     2000
   RHO(2)=  100.500       N(2)  =     4000

 VTST: version 3.1, (03/28/14)

 CHAIN: initializing optimizer
 
 OPT: Using VASP Conjugate-Gradient optimizer
 CHAIN: Read ICHAIN            0
 
 POSCAR: Mn3O4_mp-18759_conventional_standard\(1\
  positions in direct lattice
  No initial velocities read in
 


--------------------------------------------------------------------------------------------------------


 ion  position               nearest neighbor table
   1  0.384  0.430  0.204-  23 2.07  48 2.07  38 2.07  34 2.07
   2  0.566  0.930  0.143-  33 2.07  39 2.07  41 2.07  30 2.07
   3  0.839  0.930  0.387-  31 2.07  40 2.07  42 2.07
   4  0.338  0.180  0.052-  30 1.96  32 1.96  23 1.96  28 2.33  10 2.94  10 2.94  19 3.17  17 3.17
                             6 3.17
   5  0.611  0.180  0.295-  34 1.96  33 1.96  24 1.96  31 1.96  29 2.33  25 2.33  11 2.94  11 2.94
                             8 3.17  20 3.17  18 3.17   7 3.17
   6  0.588  0.430  0.052-  39 1.96  41 1.96  45 2.33  23 2.33   8 2.94   4 3.17  21 3.17  15 3.17
                            10 3.17
   7  0.861  0.430  0.295-  25 1.96  35 1.96  40 1.96  42 1.96  46 2.33  24 2.33   8 2.94   9 2.94
                             5 3.17  22 3.17  16 3.17  11 3.17
   8  0.725  0.430  0.174-  39 1.96  41 1.96  25 1.96  35 1.96  34 2.33  43 2.33   6 2.94   7 2.94
                             5 3.17  11 3.17  21 3.17  15 3.17
   9  0.998  0.430  0.417-  40 1.96  42 1.96  44 2.33   7 2.94  22 3.17  16 3.17
  10  0.338  0.680  0.052-  30 1.96  32 1.96  23 1.96  26 2.33   4 2.94   4 2.94  19 3.17  17 3.17
                             6 3.17
  11  0.611  0.680  0.295-  34 1.96  33 1.96  24 1.96  31 1.96  27 2.33  35 2.33   5 2.94   5 2.94
                             8 3.17  20 3.17  18 3.17   7 3.17
  12  0.884  0.930  0.204-  36 2.07  25 2.07  35 2.07  47 2.07
  13  0.066  0.430  0.143-  46 2.07  28 2.07  26 2.07  43 2.07
  14  0.339  0.430  0.387-  44 2.07  29 2.07  27 2.07
  15  0.838  0.680  0.052-  43 1.96  36 1.96  45 1.96  41 2.33  21 2.94  21 2.94   8 3.17  17 3.17
                             6 3.17
  16  0.111  0.680  0.295-  47 1.96  46 1.96  37 1.96  44 1.96  42 2.33  38 2.33  22 2.94  22 2.94
                            19 3.17   9 3.17  18 3.17   7 3.17
  17  0.088  0.930  0.052-  28 1.96  26 1.96  32 2.33  36 2.33  19 2.94  21 3.17  15 3.17   4 3.17
                            10 3.17
  18  0.361  0.930  0.295-  48 1.96  38 1.96  29 1.96  27 1.96  37 2.33  33 2.33  19 2.94  20 2.94
                             5 3.17  22 3.17  16 3.17  11 3.17
  19  0.225  0.930  0.174-  28 1.96  48 1.96  26 1.96  38 1.96  47 2.33  30 2.33  18 2.94  17 2.94
                            22 3.17   4 3.17  16 3.17  10 3.17
  20  0.498  0.930  0.417-  29 1.96  27 1.96  31 2.33  18 2.94   5 3.17  11 3.17
  21  0.838  0.180  0.052-  43 1.96  36 1.96  45 1.96  39 2.33  15 2.94  15 2.94   8 3.17  17 3.17
                             6 3.17
  22  0.111  0.180  0.295-  47 1.96  46 1.96  37 1.96  44 1.96  40 2.33  48 2.33  16 2.94  16 2.94
                            19 3.17   9 3.17  18 3.17   7 3.17
  23  0.404  0.430  0.104-   4 1.96  10 1.96   1 2.07   6 2.33
  24  0.677  0.430  0.347-   5 1.96  11 1.96   7 2.33
  25  0.787  0.209  0.236-   7 1.96   8 1.96  12 2.07   5 2.33
  26  0.162  0.709  0.111-  17 1.96  19 1.96  13 2.07  10 2.33
  27  0.435  0.709  0.354-  20 1.96  18 1.96  14 2.07  11 2.33
  28  0.162  0.151  0.111-  17 1.96  19 1.96  13 2.07   4 2.33
  29  0.435  0.151  0.354-  20 1.96  18 1.96  14 2.07   5 2.33
  30  0.393  0.930  0.108-   4 1.96  10 1.96   2 2.07  19 2.33
  31  0.666  0.930  0.351-   5 1.96  11 1.96   3 2.07  20 2.33
  32  0.272  0.930  0.000-   4 1.96  10 1.96  17 2.33
  33  0.545  0.930  0.243-   5 1.96  11 1.96   2 2.07  18 2.33
  34  0.556  0.430  0.240-   5 1.96  11 1.96   1 2.07   8 2.33
  35  0.787  0.651  0.236-   7 1.96   8 1.96  12 2.07  11 2.33
  36  0.904  0.930  0.104-  21 1.96  15 1.96  12 2.07  17 2.33
  37  0.177  0.930  0.347-  22 1.96  16 1.96  18 2.33
  38  0.287  0.709  0.236-  18 1.96  19 1.96   1 2.07  16 2.33
  39  0.662  0.209  0.111-   6 1.96   8 1.96   2 2.07  21 2.33
  40  0.935  0.209  0.354-   9 1.96   7 1.96   3 2.07  22 2.33
  41  0.662  0.651  0.111-   6 1.96   8 1.96   2 2.07  15 2.33
  42  0.935  0.651  0.354-   9 1.96   7 1.96   3 2.07  16 2.33
  43  0.893  0.430  0.108-  21 1.96  15 1.96  13 2.07   8 2.33
  44  0.166  0.430  0.351-  22 1.96  16 1.96  14 2.07   9 2.33
  45  0.772  0.430  0.000-  21 1.96  15 1.96   6 2.33
  46  0.045  0.430  0.243-  22 1.96  16 1.96  13 2.07   7 2.33
  47  0.056  0.930  0.240-  22 1.96  16 1.96  12 2.07  19 2.33
  48  0.287  0.151  0.236-  18 1.96  19 1.96   1 2.07  22 2.33
 
  LATTYP: Found a simple orthorhombic cell.
 ALAT       =     5.8751997948
 B/A-ratio  =     1.9137561990
 C/A-ratio  =     3.5034893959
  
  Lattice vectors:
  
 A1 = (   0.0000000000,  -5.8751997948,   0.0000000000)
 A2 = ( -11.2437000275,   0.0000000000,   0.0000000000)
 A3 = (   0.0000000000,   0.0000000000, -20.5837001801)


Analysis of symmetry for initial positions (statically):
=====================================================================
 Subroutine PRICEL returns following result:
 
  LATTYP: Found a base centered orthorhombic cell.
 ALAT       =     5.8751997948
 B/A-ratio  =     1.9137561990
 C/A-ratio  =     3.5034893959
  
  Lattice vectors:
  
 A1 = (   5.6218500137,  -2.9376000737,   0.0000000000)
 A2 = (  -5.6218500137,  -2.9375997211,   0.0000000000)
 A3 = (   0.0000000000,   0.0000000000, -20.5837001801)
 
   2 primitive cells build up your supercell.
 

 Routine SETGRP: Setting up the symmetry group for a 
 simple orthorhombic supercell.


 Subroutine GETGRP returns: Found  2 space group operations
 (whereof  1 operations were pure point group operations)
 out of a pool of  8 trial point group operations.


The static configuration has the point symmetry C_1 .
 The point group associated with its full space group is C_1h.


Analysis of symmetry for dynamics (positions and initial velocities):
=====================================================================
 Subroutine PRICEL returns following result:
 
  LATTYP: Found a base centered orthorhombic cell.
 ALAT       =     5.8751997948
 B/A-ratio  =     1.9137561990
 C/A-ratio  =     3.5034893959
  
  Lattice vectors:
  
 A1 = (   5.6218500137,  -2.9376000737,   0.0000000000)
 A2 = (  -5.6218500137,  -2.9375997211,   0.0000000000)
 A3 = (   0.0000000000,   0.0000000000, -20.5837001801)
 
   2 primitive cells build up your supercell.
 

 Routine SETGRP: Setting up the symmetry group for a 
 simple orthorhombic supercell.


 Subroutine GETGRP returns: Found  2 space group operations
 (whereof  1 operations were pure point group operations)
 out of a pool of  8 trial point group operations.


The dynamic configuration has the point symmetry C_1 .
 The point group associated with its full space group is C_1h.


Analysis of structural, dynamic, and magnetic symmetry:
=====================================================================
 Subroutine PRICEL returns following result:
 
  LATTYP: Found a base centered orthorhombic cell.
 ALAT       =     5.8751997948
 B/A-ratio  =     1.9137561990
 C/A-ratio  =     3.5034893959
  
  Lattice vectors:
  
 A1 = (   5.6218500137,  -2.9376000737,   0.0000000000)
 A2 = (  -5.6218500137,  -2.9375997211,   0.0000000000)
 A3 = (   0.0000000000,   0.0000000000, -20.5837001801)
 
   2 primitive cells build up your supercell.
 

 Routine SETGRP: Setting up the symmetry group for a 
 simple orthorhombic supercell.


 Subroutine GETGRP returns: Found  2 space group operations
 (whereof  1 operations were pure point group operations)
 out of a pool of  8 trial point group operations.


The magnetic configuration has the point symmetry C_1 .
 The point group associated with its full space group is C_1h.


 Subroutine INISYM returns: Found  2 space group operations
 (whereof  1 operations are pure point group operations),
 and found     2 'primitive' translations

 
 
 KPOINTS: K-POINTS                                

Automatic generation of k-mesh.
Space group operators:
 irot       det(A)        alpha          n_x          n_y          n_z        tau_x        tau_y        tau_z
    1     1.000000     0.000000     1.000000     0.000000     0.000000     0.000000     0.000000     0.000000
    2    -1.000000   180.000000     0.000000     1.000000     0.000000     0.000000    -0.140240     0.000000
 
 Subroutine IBZKPT returns following result:
 ===========================================
 
 Found     16 irreducible k-points:
 
 Following reciprocal coordinates:
            Coordinates               Weight
  0.000000  0.000000  0.000000      1.000000
  0.166667  0.000000  0.000000      2.000000
  0.333333  0.000000  0.000000      2.000000
  0.500000  0.000000  0.000000      1.000000
  0.000000  0.166667  0.000000      2.000000
  0.166667  0.166667  0.000000      4.000000
  0.333333  0.166667  0.000000      4.000000
  0.500000  0.166667  0.000000      2.000000
  0.000000  0.333333  0.000000      2.000000
  0.166667  0.333333  0.000000      4.000000
  0.333333  0.333333  0.000000      4.000000
  0.500000  0.333333  0.000000      2.000000
  0.000000  0.500000  0.000000      1.000000
  0.166667  0.500000  0.000000      2.000000
  0.333333  0.500000  0.000000      2.000000
  0.500000  0.500000  0.000000      1.000000
 
 Following cartesian coordinates:
            Coordinates               Weight
  0.000000  0.000000  0.000000      1.000000
  0.014823  0.000000  0.000000      2.000000
  0.029646  0.000000  0.000000      2.000000
  0.044469  0.000000  0.000000      1.000000
  0.000000  0.028368  0.000000      2.000000
  0.014823  0.028368  0.000000      4.000000
  0.029646  0.028368  0.000000      4.000000
  0.044469  0.028368  0.000000      2.000000
  0.000000  0.056736  0.000000      2.000000
  0.014823  0.056736  0.000000      4.000000
  0.029646  0.056736  0.000000      4.000000
  0.044469  0.056736  0.000000      2.000000
  0.000000  0.085103  0.000000      1.000000
  0.014823  0.085103  0.000000      2.000000
  0.029646  0.085103  0.000000      2.000000
  0.044469  0.085103  0.000000      1.000000
 


--------------------------------------------------------------------------------------------------------




 Dimension of arrays:
   k-points           NKPTS =     16   k-points in BZ     NKDIM =     16   number of bands    NBANDS=    244
   number of dos      NEDOS =    301   number of ions     NIONS =     48
   non local maximal  LDIM  =      6   non local SUM 2l+1 LMDIM =     18
   total plane-waves  NPLWV = 245760
   max r-space proj   IRMAX =      1   max aug-charges    IRDMAX=   6844
   dimension x,y,z NGX =    64 NGY =   32 NGZ =  120
   dimension x,y,z NGXF=   128 NGYF=   64 NGZF=  240
   support grid    NGXF=   128 NGYF=   64 NGZF=  240
   ions per type =              22  26
   NGX,Y,Z   is equivalent  to a cutoff of   9.46,  9.05,  9.69 a.u.
   NGXF,Y,Z  is equivalent  to a cutoff of  18.93, 18.11, 19.38 a.u.

 SYSTEM =  Mn3O4(101)                              
 POSCAR =  Mn3O4_mp-18759_conventional_standard\(1\

 Startparameter for this run:
   NWRITE =      0    write-flag & timer
   PREC   = n         normal or accurate (medium, high low for compatibility)
   ISTART =      0    job   : 0-new  1-cont  2-samecut
   ICHARG =      2    charge: 1-file 2-atom 10-const
   ISPIN  =      2    spin polarized calculation?
   LNONCOLLINEAR =      F non collinear calculations
   LSORBIT =      F    spin-orbit coupling
   INIWAV =      1    electr: 0-lowe 1-rand  2-diag
   LASPH  =      F    aspherical Exc in radial PAW
   METAGGA=      F    non-selfconsistent MetaGGA calc.

 Electronic Relaxation 1
   ENCUT  =  500.0 eV  36.75 Ry    6.06 a.u.  20.50 10.71 37.53*2*pi/ulx,y,z
   ENINI  =  500.0     initial cutoff
   ENAUG  =  605.4 eV  augmentation charge cutoff
   NELM   =    500;   NELMIN=  2; NELMDL= -5     # of ELM steps 
   EDIFF  = 0.1E-05   stopping-criterion for ELM
   LREAL  =      F    real-space projection
   NLSPLINE    = F    spline interpolate recip. space projectors
   LCOMPAT=      F    compatible to vasp.4.4
   GGA_COMPAT  = T    GGA compatible to vasp.4.4-vasp.4.6
   LMAXPAW     = -100 max onsite density
   LMAXMIX     =    2 max onsite mixed and CHGCAR
   VOSKOWN=      0    Vosko Wilk Nusair interpolation
   ROPT   =    0.00000   0.00000
 Ionic relaxation
   EDIFFG = -.1E-01   stopping-criterion for IOM
   NSW    =    500    number of steps for IOM
   NBLOCK =      1;   KBLOCK =    500    inner block; outer block 
   IBRION =      2    ionic relax: 0-MD 1-quasi-New 2-CG
   NFREE  =      1    steps in history (QN), initial steepest desc. (CG)
   ISIF   =      2    stress and relaxation
   IWAVPR =     11    prediction:  0-non 1-charg 2-wave 3-comb
   ISYM   =      2    0-nonsym 1-usesym 2-fastsym
   LCORR  =      T    Harris-Foulkes like correction to forces

   POTIM  = 0.1000    time-step for ionic-motion
   TEIN   =    0.0    initial temperature
   TEBEG  =    0.0;   TEEND  =   0.0 temperature during run
   SMASS  =  -3.00    Nose mass-parameter (am)
   estimated Nose-frequenzy (Omega)   =  0.10E-29 period in steps =****** mass=  -0.289E-26a.u.
   SCALEE = 1.0000    scale energy and forces
   NPACO  =    256;   APACO  = 16.0  distance and # of slots for P.C.
   PSTRESS=    0.0 pullay stress

  Mass of Ions in am
   POMASS =  54.94 16.00
  Ionic Valenz
   ZVAL   =   7.00  6.00
  Atomic Wigner-Seitz radii
   RWIGS  =  -1.00 -1.00
  virtual crystal weights 
   VCA    =   1.00  1.00
   NELECT =     310.0000    total number of electrons
   NUPDOWN=      -1.0000    fix difference up-down

 DOS related values:
   EMIN   =  10.00;   EMAX   =-10.00  energy-range for DOS
   EFERMI =   0.00
   ISMEAR =     1;   SIGMA  =   0.10  broadening in eV -4-tet -1-fermi 0-gaus

 Electronic relaxation 2 (details)
   IALGO  =     68    algorithm
   LDIAG  =      T    sub-space diagonalisation (order eigenvalues)
   LSUBROT=      F    optimize rotation matrix (better conditioning)
   TURBO    =      0    0=normal 1=particle mesh
   IRESTART =      0    0=no restart 2=restart with 2 vectors
   NREBOOT  =      0    no. of reboots
   NMIN     =      0    reboot dimension
   EREF     =   0.00    reference energy to select bands
   IMIX   =      4    mixing-type and parameters
     AMIX     =   0.40;   BMIX     =  1.00
     AMIX_MAG =   1.60;   BMIX_MAG =  1.00
     AMIN     =   0.10
     WC   =   100.;   INIMIX=   1;  MIXPRE=   1;  MAXMIX= -45

 Intra band minimization:
   WEIMIN = 0.0010     energy-eigenvalue tresh-hold
   EBREAK =  0.10E-08  absolut break condition
   DEPER  =   0.30     relativ break condition  

   TIME   =   0.40     timestep for ELM

  volume/ion in A,a.u.               =      28.33       191.17
  Fermi-wavevector in a.u.,A,eV,Ry     =   1.000100  1.889916 13.608559  1.000201
  Thomas-Fermi vector in A             =   2.132435
 
 Write flags
   LWAVE        =      F    write WAVECAR
   LDOWNSAMPLE  =      F    k-point downsampling of WAVECAR
   LCHARG       =      F    write CHGCAR
   LVTOT        =      F    write LOCPOT, total local potential
   LVHAR        =      F    write LOCPOT, Hartree potential only
   LELF         =      F    write electronic localiz. function (ELF)
   LORBIT       =      0    0 simple, 1 ext, 2 COOP (PROOUT), +10 PAW based schemes


 Dipole corrections
   LMONO  =      F    monopole corrections only (constant potential shift)
   LDIPOL =      T    correct potential (dipole corrections)
   IDIPOL =      3    1-x, 2-y, 3-z, 4-all directions 
   EPSILON=  1.0000000 bulk dielectric constant

 Exchange correlation treatment:
   GGA     =    --    GGA type
   LEXCH   =     8    internal setting for exchange type
   VOSKOWN=      0    Vosko Wilk Nusair interpolation
   LHFCALC =     F    Hartree Fock is set to
   LHFONE  =     F    Hartree Fock one center treatment
   AEXX    =    0.0000 exact exchange contribution

 Linear response parameters
   LEPSILON=     F    determine dielectric tensor
   LRPA    =     F    only Hartree local field effects (RPA)
   LNABLA  =     F    use nabla operator in PAW spheres
   LVEL    =     F    velocity operator in full k-point grid
   LINTERFAST=   F  fast interpolation
   KINTER  =     0    interpolate to denser k-point grid
   CSHIFT  =0.1000    complex shift for real part using Kramers Kronig
   OMEGAMAX=  -1.0    maximum frequency
   DEG_THRESHOLD= 0.2000000E-02 threshold for treating states as degnerate
   RTIME   =   -0.100 relaxation time in fs
  (WPLASMAI=    0.000 imaginary part of plasma frequency in eV, 0.658/RTIME)
   DFIELD  = 0.0000000 0.0000000 0.0000000 field for delta impulse in time
 
 Orbital magnetization related:
   ORBITALMAG=     F  switch on orbital magnetization
   LCHIMAG   =     F  perturbation theory with respect to B field
   DQ        =  0.001000  dq finite difference perturbation B field
   LLRAUG    =     F  two centre corrections for induced B field



--------------------------------------------------------------------------------------------------------


 conjugate gradient relaxation of ions
 charge density and potential will be updated during run
 spin polarized calculation
 RMM-DIIS sequential band-by-band and
  variant of blocked Davidson during initial phase
 perform sub-space diagonalisation
    before iterative eigenvector-optimisation
 modified Broyden-mixing scheme, WC =      100.0
 initial mixing is a Kerker type mixing with AMIX =  0.4000 and BMIX =      1.0000
 Hartree-type preconditioning will be used
 using additional bands           89
 reciprocal scheme for non local part
 use partial core corrections
 calculate Harris-corrections to forces 
   (improved forces if not selfconsistent)
 use gradient corrections 
 use of overlap-Matrix (Vanderbilt PP)
 Methfessel and Paxton  Order N= 1 SIGMA  =   0.10


--------------------------------------------------------------------------------------------------------


  energy-cutoff  :      500.00
  volume of cell :     1359.74
      direct lattice vectors                 reciprocal lattice vectors
    11.243700027  0.000000000  0.000000000     0.088938694  0.000000000  0.000000000
     0.000000000  5.875199795  0.000000000     0.000000000  0.170206978  0.000000000
     0.000000000  0.000000000 20.583700180     0.000000000  0.000000000  0.048582130

  length of vectors
    11.243700027  5.875199795 20.583700180     0.088938694  0.170206978  0.048582130


 
 k-points in units of 2pi/SCALE and weight: K-POINTS                                
   0.00000000  0.00000000  0.00000000       0.028
   0.01482312  0.00000000  0.00000000       0.056
   0.02964623  0.00000000  0.00000000       0.056
   0.04446935  0.00000000  0.00000000       0.028
   0.00000000  0.02836783  0.00000000       0.056
   0.01482312  0.02836783  0.00000000       0.111
   0.02964623  0.02836783  0.00000000       0.111
   0.04446935  0.02836783  0.00000000       0.056
   0.00000000  0.05673566  0.00000000       0.056
   0.01482312  0.05673566  0.00000000       0.111
   0.02964623  0.05673566  0.00000000       0.111
   0.04446935  0.05673566  0.00000000       0.056
   0.00000000  0.08510349  0.00000000       0.028
   0.01482312  0.08510349  0.00000000       0.056
   0.02964623  0.08510349  0.00000000       0.056
   0.04446935  0.08510349  0.00000000       0.028
 
 k-points in reciprocal lattice and weights: K-POINTS                                
   0.00000000  0.00000000  0.00000000       0.028
   0.16666667  0.00000000  0.00000000       0.056
   0.33333333  0.00000000  0.00000000       0.056
   0.50000000  0.00000000  0.00000000       0.028
   0.00000000  0.16666667  0.00000000       0.056
   0.16666667  0.16666667  0.00000000       0.111
   0.33333333  0.16666667  0.00000000       0.111
   0.50000000  0.16666667  0.00000000       0.056
   0.00000000  0.33333333  0.00000000       0.056
   0.16666667  0.33333333  0.00000000       0.111
   0.33333333  0.33333333  0.00000000       0.111
   0.50000000  0.33333333  0.00000000       0.056
   0.00000000  0.50000000  0.00000000       0.028
   0.16666667  0.50000000  0.00000000       0.056
   0.33333333  0.50000000  0.00000000       0.056
   0.50000000  0.50000000  0.00000000       0.028
 
 position of ions in fractional coordinates (direct lattice) 
   0.38383001  0.42987999  0.20407000
   0.56557000  0.92988002  0.14323001
   0.83860999  0.92988002  0.38659000
   0.33818001  0.17987999  0.05197000
   0.61122000  0.17987999  0.29532999
   0.58818001  0.42987999  0.05197000
   0.86122000  0.42987999  0.29532999
   0.72469997  0.42987999  0.17365000
   0.99773997  0.42987999  0.41701001
   0.33818001  0.67988002  0.05197000
   0.61122000  0.67988002  0.29532999
   0.88383001  0.92988002  0.20407000
   0.06557000  0.42987999  0.14323001
   0.33860999  0.42987999  0.38659000
   0.83818001  0.67988002  0.05197000
   0.11122000  0.67988002  0.29532999
   0.08818000  0.92988002  0.05197000
   0.36122000  0.92988002  0.29532999
   0.22470000  0.92988002  0.17365000
   0.49774000  0.92988002  0.41701001
   0.83818001  0.17987999  0.05197000
   0.11122000  0.17987999  0.29532999
   0.40404001  0.42987999  0.10394000
   0.67707998  0.42987999  0.34729999
   0.78746998  0.20878001  0.23633000
   0.16193000  0.70877999  0.11097000
   0.43498000  0.70877999  0.35433000
   0.16193000  0.15098000  0.11097000
   0.43498000  0.15098000  0.35433000
   0.39306000  0.92988002  0.10761000
   0.66610002  0.92988002  0.35098001
   0.27232000  0.92988002  0.00000000
   0.54536003  0.92988002  0.24336000
   0.55634999  0.42987999  0.23969001
   0.78746998  0.65098000  0.23633000
   0.90403998  0.92988002  0.10394000
   0.17708001  0.92988002  0.34729999
   0.28747001  0.70877999  0.23633000
   0.66193002  0.20878001  0.11097000
   0.93497997  0.20878001  0.35433000
   0.66193002  0.65098000  0.11097000
   0.93497997  0.65098000  0.35433000
   0.89306003  0.42987999  0.10761000
   0.16610000  0.42987999  0.35098001
   0.77231997  0.42987999  0.00000000
   0.04536000  0.42987999  0.24336000
   0.05635000  0.92988002  0.23969001
   0.28747001  0.15098000  0.23633000
 
 position of ions in cartesian coordinates  (Angst):
   4.31566951  2.52563085  4.20051574
   6.35909939  5.46323092  2.94820350
   9.42907920  5.46323092  7.95745273
   3.80239454  1.05683090  1.06973492
   6.87237435  1.05683090  6.07898393
   6.61331955  2.52563085  1.06973492
   9.68329936  2.52563085  6.07898393
   8.14830912  2.52563085  3.57435947
  11.21828894  2.52563085  8.58360900
   3.80239454  3.99443097  1.06973492
   6.87237435  3.99443097  6.07898393
   9.93751952  5.46323092  4.20051574
   0.73724938  2.52563085  2.94820350
   3.80722919  2.52563085  7.95745273
   9.42424456  3.99443097  1.06973492
   1.25052434  3.99443097  6.07898393
   0.99146945  5.46323092  1.06973492
   4.06144935  5.46323092  6.07898393
   2.52645944  5.46323092  3.57435947
   5.59643925  5.46323092  8.58360900
   9.42424456  1.05683090  1.06973492
   1.25052434  1.05683090  6.07898393
   4.54290466  2.52563085  2.13946986
   7.61288414  2.52563085  7.14871893
   8.85407627  1.22662425  4.86454593
   1.82069229  4.16422406  2.28417317
   4.89078469  4.16422406  7.29342255
   1.82069229  0.88703764  2.28417317
   4.89078469  0.88703764  7.29342255
   4.41944872  5.46323092  2.21501202
   7.48942887  5.46323092  7.22446738
   3.06188441  5.46323092  0.00000000
   6.13186457  5.46323092  5.00924923
   6.25543243  2.52563085  4.93370722
   8.85407627  3.82463754  4.86454593
  10.16475434  5.46323092  2.13946986
   1.99103446  5.46323092  7.14871893
   3.23222659  4.16422406  4.86454593
   7.44254264  1.22662425  2.28417317
  10.51263437  1.22662425  7.29342255
   7.44254264  3.82463754  2.28417317
  10.51263437  3.82463754  7.29342255
  10.04129907  2.52563085  2.21501202
   1.86757852  2.52563085  7.22446738
   8.68373410  2.52563085  0.00000000
   0.51001422  2.52563085  5.00924923
   0.63358250  5.46323092  4.93370722
   3.23222659  0.88703764  4.86454593
 


--------------------------------------------------------------------------------------------------------


 k-point  1 :   0.0000 0.0000 0.0000  plane waves:   34551
 k-point  2 :   0.1667 0.0000 0.0000  plane waves:   34547
 k-point  3 :   0.3333 0.0000 0.0000  plane waves:   34515
 k-point  4 :   0.5000 0.0000 0.0000  plane waves:   34532
 k-point  5 :   0.0000 0.1667 0.0000  plane waves:   34537
 k-point  6 :   0.1667 0.1667 0.0000  plane waves:   34513
 k-point  7 :   0.3333 0.1667 0.0000  plane waves:   34519
 k-point  8 :   0.5000 0.1667 0.0000  plane waves:   34506
 k-point  9 :   0.0000 0.3333 0.0000  plane waves:   34510
 k-point 10 :   0.1667 0.3333 0.0000  plane waves:   34544
 k-point 11 :   0.3333 0.3333 0.0000  plane waves:   34532
 k-point 12 :   0.5000 0.3333 0.0000  plane waves:   34462
 k-point 13 :   0.0000 0.5000 0.0000  plane waves:   34558
 k-point 14 :   0.1667 0.5000 0.0000  plane waves:   34570
 k-point 15 :   0.3333 0.5000 0.0000  plane waves:   34518
 k-point 16 :   0.5000 0.5000 0.0000  plane waves:   34512

 maximum and minimum number of plane-waves per node :      8670     8605

 maximum number of plane-waves:     34570
 maximum index in each direction: 
   IXMAX=   20   IYMAX=   10   IZMAX=   37
   IXMIN=  -20   IYMIN=  -11   IZMIN=  -37


 parallel 3D FFT for wavefunctions:
    minimum data exchange during FFTs selected (reduces bandwidth)
 parallel 3D FFT for charge:
    minimum data exchange during FFTs selected (reduces bandwidth)


 total amount of memory used by VASP MPI-rank0   372408. kBytes
=======================================================================

   base      :      30000. kBytes
   nonl-proj :      46448. kBytes
   fftplans  :       6044. kBytes
   grid      :      14827. kBytes
   one-center:        373. kBytes
   wavefun   :     274716. kBytes
 
     INWAV:  cpu time    0.0000: real time    0.0000
 Broyden mixing: mesh for mixing (old mesh)
   NGX = 41   NGY = 21   NGZ = 75
  (NGX  =128   NGY  = 64   NGZ  =240)
  gives a total of  64575 points

 initial charge density was supplied:
 charge density of overlapping atoms calculated
 number of electron     310.0000000 magnetization     110.0000000
 keeping initial charge density in first step


--------------------------------------------------------------------------------------------------------


 Maximum index for augmentation-charges          438 (set IRDMAX)


--------------------------------------------------------------------------------------------------------


 First call to EWALD:  gamma=   0.160
 Maximum number of real-space cells 3x 5x 2
 Maximum number of reciprocal cells 3x 2x 5

    FEWALD:  cpu time    0.0030: real time    0.0036


--------------------------------------- Iteration      1(   1)  ---------------------------------------


    POTLOK:  cpu time    0.3180: real time    0.3234
    SETDIJ:  cpu time    0.0260: real time    0.0253
     EDDAV:  cpu time  160.6846: real time  160.7121
       DOS:  cpu time    0.0070: real time    0.0077
    --------------------------------------------
      LOOP:  cpu time  161.0355: real time  161.0685

 eigenvalue-minimisations  : 15616
 total energy-change (2. order) : 0.4039806E+04  (-0.1169357E+05)
 number of electron     310.0000000 magnetization     110.0000000
 augmentation part      310.0000000 magnetization     110.0000000

 DIPCOR: dipole corrections for dipol
 direction  3 min pos   174,
 dipolmoment           0.000000      0.000000     -0.000033 electrons x Angstroem
 Tr[quadrupol]     -4051.440061

 energy correction for charged system         0.000000 eV
 dipol+quadrupol energy correction           -0.000000 eV
 added-field ion interaction         -0.000162 eV  (added to PSCEN)


 Free energy of the ion-electron system (eV)
  ---------------------------------------------------
  alpha Z        PSCENC =       532.65160325
  Ewald energy   TEWEN  =     60544.15491456
  -Hartree energ DENC   =    -80094.86815042
  -exchange      EXHF   =         0.00000000
  -V(xc)+E(xc)   XCENC  =       498.21711538
  PAW double counting   =     13612.30664968   -13334.84518155
  entropy T*S    EENTRO =        -0.00264602
  eigenvalues    EBANDS =      1869.76702116
  atomic energy  EATOM  =     20412.42511142
  Solvation  Ediel_sol  =         0.00000000
  ---------------------------------------------------
  free energy    TOTEN  =      4039.80643746 eV

  energy without entropy =     4039.80908348  energy(sigma->0) =     4039.80731947


--------------------------------------------------------------------------------------------------------




--------------------------------------- Iteration      1(   2)  ---------------------------------------


     EDDAV:  cpu time  163.4112: real time  163.4503
       DOS:  cpu time    0.0080: real time    0.0084
    --------------------------------------------
      LOOP:  cpu time  163.4192: real time  163.4587

 eigenvalue-minimisations  : 15880
 total energy-change (2. order) :-0.3330029E+04  (-0.3051391E+04)
 number of electron     310.0000000 magnetization     110.0000000
 augmentation part      310.0000000 magnetization     110.0000000

 DIPCOR: dipole corrections for dipol
 direction  3 min pos   174,
 dipolmoment           0.000000      0.000000     -0.000033 electrons x Angstroem
 Tr[quadrupol]     -4051.440061

 energy correction for charged system         0.000000 eV
 dipol+quadrupol energy correction           -0.000000 eV
 added-field ion interaction         -0.000162 eV  (added to PSCEN)


 Free energy of the ion-electron system (eV)
  ---------------------------------------------------
  alpha Z        PSCENC =       532.65160325
  Ewald energy   TEWEN  =     60544.15491456
  -Hartree energ DENC   =    -80094.86815042
  -exchange      EXHF   =         0.00000000
  -V(xc)+E(xc)   XCENC  =       498.21711538
  PAW double counting   =     13612.30664968   -13334.84518155
  entropy T*S    EENTRO =         0.00068783
  eigenvalues    EBANDS =     -1460.26577881
  atomic energy  EATOM  =     20412.42511142
  Solvation  Ediel_sol  =         0.00000000
  ---------------------------------------------------
  free energy    TOTEN  =       709.77697134 eV

  energy without entropy =      709.77628351  energy(sigma->0) =      709.77674206


--------------------------------------------------------------------------------------------------------




--------------------------------------- Iteration      1(   3)  ---------------------------------------


     EDDAV:  cpu time  234.4644: real time  234.5440
       DOS:  cpu time    0.0080: real time    0.0080
    --------------------------------------------
      LOOP:  cpu time  234.4724: real time  234.5520

 eigenvalue-minimisations  : 24904
 total energy-change (2. order) :-0.1064246E+04  (-0.9835174E+03)
 number of electron     310.0000000 magnetization     110.0000000
 augmentation part      310.0000000 magnetization     110.0000000

 DIPCOR: dipole corrections for dipol
 direction  3 min pos   174,
 dipolmoment           0.000000      0.000000     -0.000033 electrons x Angstroem
 Tr[quadrupol]     -4051.440061

 energy correction for charged system         0.000000 eV
 dipol+quadrupol energy correction           -0.000000 eV
 added-field ion interaction         -0.000162 eV  (added to PSCEN)


 Free energy of the ion-electron system (eV)
  ---------------------------------------------------
  alpha Z        PSCENC =       532.65160325
  Ewald energy   TEWEN  =     60544.15491456
  -Hartree energ DENC   =    -80094.86815042
  -exchange      EXHF   =         0.00000000
  -V(xc)+E(xc)   XCENC  =       498.21711538
  PAW double counting   =     13612.30664968   -13334.84518155
  entropy T*S    EENTRO =         0.00136148
  eigenvalues    EBANDS =     -2524.51202205
  atomic energy  EATOM  =     20412.42511142
  Solvation  Ediel_sol  =         0.00000000
  ---------------------------------------------------
  free energy    TOTEN  =      -354.46859825 eV

  energy without entropy =     -354.46995973  energy(sigma->0) =     -354.46905208


--------------------------------------------------------------------------------------------------------




--------------------------------------- Iteration      1(   4)  ---------------------------------------


     EDDAV:  cpu time  226.7945: real time  226.9076
       DOS:  cpu time    0.0080: real time    0.0079
    --------------------------------------------
      LOOP:  cpu time  226.8025: real time  226.9155

 eigenvalue-minimisations  : 23920
 total energy-change (2. order) :-0.1184173E+03  (-0.1138992E+03)
 number of electron     310.0000000 magnetization     110.0000000
 augmentation part      310.0000000 magnetization     110.0000000

 DIPCOR: dipole corrections for dipol
 direction  3 min pos   174,
 dipolmoment           0.000000      0.000000     -0.000033 electrons x Angstroem
 Tr[quadrupol]     -4051.440061

 energy correction for charged system         0.000000 eV
 dipol+quadrupol energy correction           -0.000000 eV
 added-field ion interaction         -0.000162 eV  (added to PSCEN)


 Free energy of the ion-electron system (eV)
  ---------------------------------------------------
  alpha Z        PSCENC =       532.65160325
  Ewald energy   TEWEN  =     60544.15491456
  -Hartree energ DENC   =    -80094.86815042
  -exchange      EXHF   =         0.00000000
  -V(xc)+E(xc)   XCENC  =       498.21711538
  PAW double counting   =     13612.30664968   -13334.84518155
  entropy T*S    EENTRO =        -0.00410949
  eigenvalues    EBANDS =     -2642.92389468
  atomic energy  EATOM  =     20412.42511142
  Solvation  Ediel_sol  =         0.00000000
  ---------------------------------------------------
  free energy    TOTEN  =      -472.88594185 eV

  energy without entropy =     -472.88183236  energy(sigma->0) =     -472.88457202


--------------------------------------------------------------------------------------------------------




--------------------------------------- Iteration      1(   5)  ---------------------------------------


     EDDAV:  cpu time  227.1945: real time  227.3259
       DOS:  cpu time    0.0080: real time    0.0081
    CHARGE:  cpu time    2.9326: real time    2.9411
    MIXING:  cpu time    0.0090: real time    0.0090
    --------------------------------------------
      LOOP:  cpu time  230.1440: real time  230.2842

 eigenvalue-minimisations  : 24016
 total energy-change (2. order) :-0.2872121E+01  (-0.2828458E+01)
 number of electron     310.0000129 magnetization     108.7707795
 augmentation part       82.0335608 magnetization      65.9123446

 DIPCOR: dipole corrections for dipol
 direction  3 min pos   174,
 dipolmoment           0.000000      0.000000     -0.000033 electrons x Angstroem
 Tr[quadrupol]     -4051.440061

 energy correction for charged system         0.000000 eV
 dipol+quadrupol energy correction           -0.000000 eV
 added-field ion interaction         -0.000162 eV  (added to PSCEN)


 Broyden mixing:
  rms(total) = 0.60461E+01    rms(broyden)= 0.60447E+01
  rms(prec ) = 0.66372E+01
  weight for this iteration     100.00

 Free energy of the ion-electron system (eV)
  ---------------------------------------------------
  alpha Z        PSCENC =       532.65160325
  Ewald energy   TEWEN  =     60544.15491456
  -Hartree energ DENC   =    -80094.86815042
  -exchange      EXHF   =         0.00000000
  -V(xc)+E(xc)   XCENC  =       498.21711538
  PAW double counting   =     13612.30664968   -13334.84518155
  entropy T*S    EENTRO =        -0.00476835
  eigenvalues    EBANDS =     -2645.79535667
  atomic energy  EATOM  =     20412.42511142
  Solvation  Ediel_sol  =         0.00000000
  ---------------------------------------------------
  free energy    TOTEN  =      -475.75806271 eV

  energy without entropy =     -475.75329436  energy(sigma->0) =     -475.75647326


--------------------------------------------------------------------------------------------------------




--------------------------------------- Iteration      1(   6)  ---------------------------------------


    POTLOK:  cpu time    0.5169: real time    0.5948
    SETDIJ:  cpu time    0.0250: real time    0.0257
    EDDIAG:  cpu time   15.8686: real time   15.8712
  RMM-DIIS:  cpu time  102.3124: real time  102.3271
    ORTHCH:  cpu time    3.4455: real time    3.4469
       DOS:  cpu time    0.0100: real time    0.0091
    CHARGE:  cpu time    2.8326: real time    2.8339
    MIXING:  cpu time    0.0100: real time    0.0095
    --------------------------------------------
      LOOP:  cpu time  125.0210: real time  125.1182

 eigenvalue-minimisations  : 17472
 total energy-change (2. order) : 0.6617058E+02  (-0.5429168E+02)
 number of electron     309.9999968 magnetization     106.9861789
 augmentation part       96.6496162 magnetization      79.0937572

 DIPCOR: dipole corrections for dipol
 direction  3 min pos   170,
 dipolmoment           0.000000      0.000000      0.166263 electrons x Angstroem
 Tr[quadrupol]     -4055.065459

 energy correction for charged system         0.000000 eV
 dipol+quadrupol energy correction           -0.001840 eV
 added-field ion interaction         -1.545703 eV  (added to PSCEN)


 Broyden mixing:
  rms(total) = 0.61211E+01    rms(broyden)= 0.61194E+01
  rms(prec ) = 0.68647E+01
  weight for this iteration     100.00

 eigenvalues of (default mixing * dielectric matrix)
  average eigenvalue GAMMA=   0.4615
  0.4615

 Free energy of the ion-electron system (eV)
  ---------------------------------------------------
  alpha Z        PSCENC =       531.10422227
  Ewald energy   TEWEN  =     60544.15491456
  -Hartree energ DENC   =    -80445.12399270
  -exchange      EXHF   =         0.00000000
  -V(xc)+E(xc)   XCENC  =       544.56809263
  PAW double counting   =     14207.27677394   -13908.14323365
  entropy T*S    EENTRO =        -0.00733226
  eigenvalues    EBANDS =     -2295.84203451
  atomic energy  EATOM  =     20412.42511142
  Solvation  Ediel_sol  =         0.00000000
  ---------------------------------------------------
  free energy    TOTEN  =      -409.58747830 eV

  energy without entropy =     -409.58014604  energy(sigma->0) =     -409.58503421


--------------------------------------------------------------------------------------------------------




--------------------------------------- Iteration      1(   7)  ---------------------------------------


    POTLOK:  cpu time    0.5479: real time    0.5521
    SETDIJ:  cpu time    0.0260: real time    0.0257
    EDDIAG:  cpu time   15.7656: real time   15.7677
  RMM-DIIS:  cpu time  105.9839: real time  106.0021
    ORTHCH:  cpu time    3.4565: real time    3.4573
       DOS:  cpu time    0.0080: real time    0.0085
    CHARGE:  cpu time    2.5026: real time    2.5030
    MIXING:  cpu time    0.0100: real time    0.0098
    --------------------------------------------
      LOOP:  cpu time  128.3005: real time  128.3261

 eigenvalue-minimisations  : 18225
 total energy-change (2. order) :-0.7629801E+02  (-0.5924941E+01)
 number of electron     309.9999978 magnetization     106.2413309
 augmentation part       87.8729648 magnetization      85.6323666

 DIPCOR: dipole corrections for dipol
 direction  3 min pos   175,
 dipolmoment           0.000000      0.000000     -2.044557 electrons x Angstroem
 Tr[quadrupol]     -4055.906242

 energy correction for charged system         0.000000 eV
 dipol+quadrupol energy correction           -0.278278 eV
 added-field ion interaction        -17.179461 eV  (added to PSCEN)


 Broyden mixing:
  rms(total) = 0.11084E+02    rms(broyden)= 0.11084E+02
  rms(prec ) = 0.14394E+02
  weight for this iteration     100.00

 eigenvalues of (default mixing * dielectric matrix)
  average eigenvalue GAMMA=   0.2530
  0.4483  0.0577

 Free energy of the ion-electron system (eV)
  ---------------------------------------------------
  alpha Z        PSCENC =       515.19402563
  Ewald energy   TEWEN  =     60544.15491456
  -Hartree energ DENC   =    -80456.77367468
  -exchange      EXHF   =         0.00000000
  -V(xc)+E(xc)   XCENC  =       533.45711653
  PAW double counting   =     14307.55838716   -14035.20881851
  entropy T*S    EENTRO =        -0.00715822
  eigenvalues    EBANDS =     -2306.68539096
  atomic energy  EATOM  =     20412.42511142
  Solvation  Ediel_sol  =         0.00000000
  ---------------------------------------------------
  free energy    TOTEN  =      -485.88548708 eV

  energy without entropy =     -485.87832886  energy(sigma->0) =     -485.88310101


--------------------------------------------------------------------------------------------------------




--------------------------------------- Iteration      1(   8)  ---------------------------------------


    POTLOK:  cpu time    0.3300: real time    0.3569
    SETDIJ:  cpu time    0.0260: real time    0.0258
    EDDIAG:  cpu time   15.7446: real time   15.7482
  RMM-DIIS:  cpu time  100.9717: real time  100.9893
    ORTHCH:  cpu time    3.4525: real time    3.4525
       DOS:  cpu time    0.0080: real time    0.0084
    CHARGE:  cpu time    2.8606: real time    2.8608
    MIXING:  cpu time    0.0100: real time    0.0102
    --------------------------------------------
      LOOP:  cpu time  123.4032: real time  123.4521

 eigenvalue-minimisations  : 17295
 total energy-change (2. order) : 0.1138128E+03  (-0.1732182E+01)
 number of electron     310.0000018 magnetization     105.7144010
 augmentation part       86.9630088 magnetization      67.6710273

 DIPCOR: dipole corrections for dipol
 direction  3 min pos   170,
 dipolmoment           0.000000      0.000000     -0.175549 electrons x Angstroem
 Tr[quadrupol]     -4056.349994

 energy correction for charged system         0.000000 eV
 dipol+quadrupol energy correction           -0.002052 eV
 added-field ion interaction          1.632033 eV  (added to PSCEN)


 Broyden mixing:
  rms(total) = 0.28787E+01    rms(broyden)= 0.28779E+01
  rms(prec ) = 0.31253E+01
  weight for this iteration     100.00

 eigenvalues of (default mixing * dielectric matrix)
  average eigenvalue GAMMA=   0.3672
  0.6737  0.3313  0.0966

 Free energy of the ion-electron system (eV)
  ---------------------------------------------------
  alpha Z        PSCENC =       534.28174630
  Ewald energy   TEWEN  =     60544.15491456
  -Hartree energ DENC   =    -80440.21279283
  -exchange      EXHF   =         0.00000000
  -V(xc)+E(xc)   XCENC  =       532.64512950
  PAW double counting   =     14322.75393515   -14051.87474247
  entropy T*S    EENTRO =        -0.00424035
  eigenvalues    EBANDS =     -2226.24177460
  atomic energy  EATOM  =     20412.42511142
  Solvation  Ediel_sol  =         0.00000000
  ---------------------------------------------------
  free energy    TOTEN  =      -372.07271331 eV

  energy without entropy =     -372.06847296  energy(sigma->0) =     -372.07129986


--------------------------------------------------------------------------------------------------------




--------------------------------------- Iteration      1(   9)  ---------------------------------------


    POTLOK:  cpu time    0.3749: real time    0.4483
    SETDIJ:  cpu time    0.0260: real time    0.0255
    EDDIAG:  cpu time   15.7796: real time   15.7823
  RMM-DIIS:  cpu time   95.2565: real time   95.3769
    ORTHCH:  cpu time    3.4535: real time    3.4544
       DOS:  cpu time    0.0090: real time    0.0083
    CHARGE:  cpu time    2.8306: real time    2.8311
    MIXING:  cpu time    0.0110: real time    0.0116
    --------------------------------------------
      LOOP:  cpu time  117.7411: real time  117.9383

 eigenvalue-minimisations  : 16303
 total energy-change (2. order) :-0.2249822E+01  (-0.9515200E+00)
 number of electron     310.0000021 magnetization     105.3273981
 augmentation part       87.3799102 magnetization      67.0344196

 DIPCOR: dipole corrections for dipol
 direction  3 min pos   167,
 dipolmoment           0.000000      0.000000     -0.140823 electrons x Angstroem
 Tr[quadrupol]     -4058.826934

 energy correction for charged system         0.000000 eV
 dipol+quadrupol energy correction           -0.001320 eV
 added-field ion interaction          2.804687 eV  (added to PSCEN)


 Broyden mixing:
  rms(total) = 0.18125E+01    rms(broyden)= 0.18123E+01
  rms(prec ) = 0.18898E+01
  weight for this iteration     100.00

 eigenvalues of (default mixing * dielectric matrix)
  average eigenvalue GAMMA=   0.3997
  0.6152  0.4415  0.4415  0.1006

 Free energy of the ion-electron system (eV)
  ---------------------------------------------------
  alpha Z        PSCENC =       535.45513149
  Ewald energy   TEWEN  =     60544.15491456
  -Hartree energ DENC   =    -80491.56436992
  -exchange      EXHF   =         0.00000000
  -V(xc)+E(xc)   XCENC  =       534.62486272
  PAW double counting   =     14361.68023072   -14098.00516324
  entropy T*S    EENTRO =         0.00393899
  eigenvalues    EBANDS =     -2173.09719172
  atomic energy  EATOM  =     20412.42511142
  Solvation  Ediel_sol  =         0.00000000
  ---------------------------------------------------
  free energy    TOTEN  =      -374.32253498 eV

  energy without entropy =     -374.32647397  energy(sigma->0) =     -374.32384798


--------------------------------------------------------------------------------------------------------




--------------------------------------- Iteration      1(  10)  ---------------------------------------


    POTLOK:  cpu time    0.5019: real time    0.5528
    SETDIJ:  cpu time    0.0260: real time    0.0257
    EDDIAG:  cpu time   15.7416: real time   15.7446
  RMM-DIIS:  cpu time  104.2032: real time  104.2188
    ORTHCH:  cpu time    3.4645: real time    3.4645
       DOS:  cpu time    0.0080: real time    0.0081
    CHARGE:  cpu time    2.8746: real time    2.8755
    MIXING:  cpu time    0.0120: real time    0.0113
    --------------------------------------------
      LOOP:  cpu time  126.8317: real time  126.9014

 eigenvalue-minimisations  : 17788
 total energy-change (2. order) :-0.4731878E+01  (-0.4567151E+00)
 number of electron     310.0000020 magnetization     104.3336664
 augmentation part       87.9882928 magnetization      66.6323148

 DIPCOR: dipole corrections for dipol
 direction  3 min pos   166,
 dipolmoment           0.000000      0.000000      0.012973 electrons x Angstroem
 Tr[quadrupol]     -4058.961302

 energy correction for charged system         0.000000 eV
 dipol+quadrupol energy correction           -0.000011 eV
 added-field ion interaction         -0.304286 eV  (added to PSCEN)


 Broyden mixing:
  rms(total) = 0.12359E+01    rms(broyden)= 0.12358E+01
  rms(prec ) = 0.13079E+01
  weight for this iteration     100.00

 eigenvalues of (default mixing * dielectric matrix)
  average eigenvalue GAMMA=   0.5709
  0.9414  0.9414  0.1003  0.4257  0.4457

 Free energy of the ion-electron system (eV)
  ---------------------------------------------------
  alpha Z        PSCENC =       532.34746812
  Ewald energy   TEWEN  =     60544.15491456
  -Hartree energ DENC   =    -80501.21553392
  -exchange      EXHF   =         0.00000000
  -V(xc)+E(xc)   XCENC  =       534.88155680
  PAW double counting   =     14401.23820809   -14142.18077195
  entropy T*S    EENTRO =        -0.00146456
  eigenvalues    EBANDS =     -2160.70390176
  atomic energy  EATOM  =     20412.42511142
  Solvation  Ediel_sol  =         0.00000000
  ---------------------------------------------------
  free energy    TOTEN  =      -379.05441321 eV

  energy without entropy =     -379.05294865  energy(sigma->0) =     -379.05392502


--------------------------------------------------------------------------------------------------------




--------------------------------------- Iteration      1(  11)  ---------------------------------------


    POTLOK:  cpu time    0.5509: real time    0.5566
    SETDIJ:  cpu time    0.0260: real time    0.0258
    EDDIAG:  cpu time   15.9286: real time   15.9735
  RMM-DIIS:  cpu time  103.1403: real time  103.1727
    ORTHCH:  cpu time    3.4535: real time    3.4537
       DOS:  cpu time    0.0090: real time    0.0085
    CHARGE:  cpu time    2.8326: real time    2.8333
    MIXING:  cpu time    0.0120: real time    0.0117
    --------------------------------------------
      LOOP:  cpu time  125.9529: real time  126.0357

 eigenvalue-minimisations  : 17643
 total energy-change (2. order) :-0.4526005E+01  (-0.7541992E+00)
 number of electron     310.0000016 magnetization     103.7397956
 augmentation part       88.1759629 magnetization      65.8609420

 DIPCOR: dipole corrections for dipol
 direction  3 min pos   166,
 dipolmoment           0.000000      0.000000     -0.104816 electrons x Angstroem
 Tr[quadrupol]     -4061.974524

 energy correction for charged system         0.000000 eV
 dipol+quadrupol energy correction           -0.000731 eV
 added-field ion interaction          2.458591 eV  (added to PSCEN)


 Broyden mixing:
  rms(total) = 0.50014E+00    rms(broyden)= 0.50003E+00
  rms(prec ) = 0.53168E+00
  weight for this iteration     100.00

 eigenvalues of (default mixing * dielectric matrix)
  average eigenvalue GAMMA=   0.6641
  1.3090  1.1340  0.1003  0.5089  0.5089  0.4232

 Free energy of the ion-electron system (eV)
  ---------------------------------------------------
  alpha Z        PSCENC =       535.10962452
  Ewald energy   TEWEN  =     60544.15491456
  -Hartree energ DENC   =    -80587.68406372
  -exchange      EXHF   =         0.00000000
  -V(xc)+E(xc)   XCENC  =       539.99213719
  PAW double counting   =     14509.78614255   -14263.56611773
  entropy T*S    EENTRO =         0.00230628
  eigenvalues    EBANDS =     -2073.80047308
  atomic energy  EATOM  =     20412.42511142
  Solvation  Ediel_sol  =         0.00000000
  ---------------------------------------------------
  free energy    TOTEN  =      -383.58041801 eV

  energy without entropy =     -383.58272429  energy(sigma->0) =     -383.58118677


--------------------------------------------------------------------------------------------------------




--------------------------------------- Iteration      1(  12)  ---------------------------------------


    POTLOK:  cpu time    0.3100: real time    0.3149
    SETDIJ:  cpu time    0.0250: real time    0.0257
    EDDIAG:  cpu time   15.8106: real time   15.8123
  RMM-DIIS:  cpu time  101.4726: real time  101.5086
    ORTHCH:  cpu time    3.4555: real time    3.4559
       DOS:  cpu time    0.0090: real time    0.0086
    CHARGE:  cpu time    2.8796: real time    2.8800
    MIXING:  cpu time    0.0120: real time    0.0125
    --------------------------------------------
      LOOP:  cpu time  123.9742: real time  124.0185

 eigenvalue-minimisations  : 17377
 total energy-change (2. order) :-0.8087675E+00  (-0.2291368E+00)
 number of electron     310.0000017 magnetization     103.4067028
 augmentation part       88.4835811 magnetization      66.4795194

 DIPCOR: dipole corrections for dipol
 direction  3 min pos   166,
 dipolmoment           0.000000      0.000000     -0.075941 electrons x Angstroem
 Tr[quadrupol]     -4063.311718

 energy correction for charged system         0.000000 eV
 dipol+quadrupol energy correction           -0.000384 eV
 added-field ion interaction          1.781286 eV  (added to PSCEN)


 Broyden mixing:
  rms(total) = 0.42398E+00    rms(broyden)= 0.42388E+00
  rms(prec ) = 0.49366E+00
  weight for this iteration     100.00

 eigenvalues of (default mixing * dielectric matrix)
  average eigenvalue GAMMA=   0.7040
  1.5353  1.0640  0.1003  0.6897  0.6897  0.4245  0.4245

 Free energy of the ion-electron system (eV)
  ---------------------------------------------------
  alpha Z        PSCENC =       534.43266695
  Ewald energy   TEWEN  =     60544.15491456
  -Hartree energ DENC   =    -80620.35091113
  -exchange      EXHF   =         0.00000000
  -V(xc)+E(xc)   XCENC  =       543.32574024
  PAW double counting   =     14549.93250273   -14311.00977820
  entropy T*S    EENTRO =        -0.01055819
  eigenvalues    EBANDS =     -2037.28887390
  atomic energy  EATOM  =     20412.42511142
  Solvation  Ediel_sol  =         0.00000000
  ---------------------------------------------------
  free energy    TOTEN  =      -384.38918552 eV

  energy without entropy =     -384.37862733  energy(sigma->0) =     -384.38566612


--------------------------------------------------------------------------------------------------------




--------------------------------------- Iteration      1(  13)  ---------------------------------------


    POTLOK:  cpu time    0.4299: real time    0.4353
    SETDIJ:  cpu time    0.0260: real time    0.0257
    EDDIAG:  cpu time   15.7436: real time   15.7457
  RMM-DIIS:  cpu time  108.9124: real time  108.9601
    ORTHCH:  cpu time    3.4475: real time    3.4479
       DOS:  cpu time    0.0080: real time    0.0084
    CHARGE:  cpu time    2.8786: real time    2.8787
    MIXING:  cpu time    0.0130: real time    0.0130
    --------------------------------------------
      LOOP:  cpu time  131.4590: real time  131.5149

 eigenvalue-minimisations  : 18784
 total energy-change (2. order) :-0.1776822E-03  (-0.4446365E-01)
 number of electron     310.0000010 magnetization     103.2829327
 augmentation part       88.2142235 magnetization      65.3367030

 DIPCOR: dipole corrections for dipol
 direction  3 min pos   166,
 dipolmoment           0.000000      0.000000     -0.311915 electrons x Angstroem
 Tr[quadrupol]     -4063.806009

 energy correction for charged system         0.000000 eV
 dipol+quadrupol energy correction           -0.006477 eV
 added-field ion interaction          7.316326 eV  (added to PSCEN)


 Broyden mixing:
  rms(total) = 0.41146E+00    rms(broyden)= 0.41126E+00
  rms(prec ) = 0.49460E+00
  weight for this iteration     100.00

 eigenvalues of (default mixing * dielectric matrix)
  average eigenvalue GAMMA=   0.6913
  1.7556  0.9997  0.7738  0.7738  0.1003  0.4251  0.4251  0.2772

 Free energy of the ion-electron system (eV)
  ---------------------------------------------------
  alpha Z        PSCENC =       539.96161404
  Ewald energy   TEWEN  =     60544.15491456
  -Hartree energ DENC   =    -80619.09823502
  -exchange      EXHF   =         0.00000000
  -V(xc)+E(xc)   XCENC  =       541.64564632
  PAW double counting   =     14547.37733308   -14309.87089328
  entropy T*S    EENTRO =         0.00762100
  eigenvalues    EBANDS =     -2040.99247534
  atomic energy  EATOM  =     20412.42511142
  Solvation  Ediel_sol  =         0.00000000
  ---------------------------------------------------
  free energy    TOTEN  =      -384.38936320 eV

  energy without entropy =     -384.39698421  energy(sigma->0) =     -384.39190354


--------------------------------------------------------------------------------------------------------




--------------------------------------- Iteration      1(  14)  ---------------------------------------


    POTLOK:  cpu time    0.4639: real time    0.4703
    SETDIJ:  cpu time    0.0260: real time    0.0256
    EDDIAG:  cpu time   15.7256: real time   15.7286
  RMM-DIIS:  cpu time   99.4989: real time   99.5136
    ORTHCH:  cpu time    3.4505: real time    3.4508
       DOS:  cpu time    0.0080: real time    0.0082
    CHARGE:  cpu time    2.8646: real time    2.8648
    MIXING:  cpu time    0.0140: real time    0.0137
    --------------------------------------------
      LOOP:  cpu time  122.0514: real time  122.0756

 eigenvalue-minimisations  : 16982
 total energy-change (2. order) : 0.4669867E+00  (-0.5904655E-01)
 number of electron     310.0000014 magnetization     103.0127496
 augmentation part       88.4623206 magnetization      65.4884718

 DIPCOR: dipole corrections for dipol
 direction  3 min pos   167,
 dipolmoment           0.000000      0.000000     -0.232642 electrons x Angstroem
 Tr[quadrupol]     -4063.459851

 energy correction for charged system         0.000000 eV
 dipol+quadrupol energy correction           -0.003603 eV
 added-field ion interaction          4.633380 eV  (added to PSCEN)


 Broyden mixing:
  rms(total) = 0.21154E+00    rms(broyden)= 0.21145E+00
  rms(prec ) = 0.22168E+00
  weight for this iteration     100.00

 eigenvalues of (default mixing * dielectric matrix)
  average eigenvalue GAMMA=   0.7717
  2.5092  0.9471  0.9471  0.7329  0.1003  0.4908  0.4908  0.4080  0.3190

 Free energy of the ion-electron system (eV)
  ---------------------------------------------------
  alpha Z        PSCENC =       537.28154239
  Ewald energy   TEWEN  =     60544.15491456
  -Hartree energ DENC   =    -80609.96220312
  -exchange      EXHF   =         0.00000000
  -V(xc)+E(xc)   XCENC  =       541.89245662
  PAW double counting   =     14541.02071686   -14304.33547745
  entropy T*S    EENTRO =        -0.00394286
  eigenvalues    EBANDS =     -2046.39549494
  atomic energy  EATOM  =     20412.42511142
  Solvation  Ediel_sol  =         0.00000000
  ---------------------------------------------------
  free energy    TOTEN  =      -383.92237652 eV

  energy without entropy =     -383.91843366  energy(sigma->0) =     -383.92106223


--------------------------------------------------------------------------------------------------------




--------------------------------------- Iteration      1(  15)  ---------------------------------------


    POTLOK:  cpu time    0.3949: real time    0.3996
    SETDIJ:  cpu time    0.0260: real time    0.0258
    EDDIAG:  cpu time   15.7856: real time   15.7878
  RMM-DIIS:  cpu time  100.6377: real time  100.6534
    ORTHCH:  cpu time    3.4505: real time    3.4506
       DOS:  cpu time    0.0080: real time    0.0086
    CHARGE:  cpu time    2.8956: real time    2.8952
    MIXING:  cpu time    0.0140: real time    0.0147
    --------------------------------------------
      LOOP:  cpu time  123.2123: real time  123.2357

 eigenvalue-minimisations  : 17245
 total energy-change (2. order) :-0.1980671E+00  (-0.1480611E-01)
 number of electron     310.0000014 magnetization     102.8853485
 augmentation part       88.3646217 magnetization      65.1689226

 DIPCOR: dipole corrections for dipol
 direction  3 min pos   168,
 dipolmoment           0.000000      0.000000     -0.285340 electrons x Angstroem
 Tr[quadrupol]     -4063.625980

 energy correction for charged system         0.000000 eV
 dipol+quadrupol energy correction           -0.005420 eV
 added-field ion interaction          4.672864 eV  (added to PSCEN)


 Broyden mixing:
  rms(total) = 0.14554E+00    rms(broyden)= 0.14553E+00
  rms(prec ) = 0.16596E+00
  weight for this iteration     100.00

 eigenvalues of (default mixing * dielectric matrix)
  average eigenvalue GAMMA=   0.7882
  2.5539  1.0863  1.0863  0.1003  0.6539  0.6539  0.5795  0.4340  0.4340  0.2996

 Free energy of the ion-electron system (eV)
  ---------------------------------------------------
  alpha Z        PSCENC =       537.31920917
  Ewald energy   TEWEN  =     60544.15491456
  -Hartree energ DENC   =    -80613.87084038
  -exchange      EXHF   =         0.00000000
  -V(xc)+E(xc)   XCENC  =       541.53130965
  PAW double counting   =     14543.90788060   -14308.94331640
  entropy T*S    EENTRO =        -0.00301757
  eigenvalues    EBANDS =     -2040.64169468
  atomic energy  EATOM  =     20412.42511142
  Solvation  Ediel_sol  =         0.00000000
  ---------------------------------------------------
  free energy    TOTEN  =      -384.12044362 eV

  energy without entropy =     -384.11742605  energy(sigma->0) =     -384.11943776


--------------------------------------------------------------------------------------------------------




--------------------------------------- Iteration      1(  16)  ---------------------------------------


    POTLOK:  cpu time    0.4029: real time    0.4854
    SETDIJ:  cpu time    0.0250: real time    0.0257
    EDDIAG:  cpu time   15.7516: real time   15.7533
  RMM-DIIS:  cpu time   96.0754: real time   96.0898
    ORTHCH:  cpu time    3.4465: real time    3.4478
       DOS:  cpu time    0.0090: real time    0.0086
    CHARGE:  cpu time    2.8876: real time    2.8878
    MIXING:  cpu time    0.0150: real time    0.0152
    --------------------------------------------
      LOOP:  cpu time  118.6130: real time  118.7136

 eigenvalue-minimisations  : 16512
 total energy-change (2. order) :-0.4571443E-01  (-0.6765971E-02)
 number of electron     310.0000015 magnetization     102.6788454
 augmentation part       88.3927429 magnetization      65.0800231

 DIPCOR: dipole corrections for dipol
 direction  3 min pos   168,
 dipolmoment           0.000000      0.000000     -0.267671 electrons x Angstroem
 Tr[quadrupol]     -4063.536505

 energy correction for charged system         0.000000 eV
 dipol+quadrupol energy correction           -0.004770 eV
 added-field ion interaction          4.383508 eV  (added to PSCEN)


 Broyden mixing:
  rms(total) = 0.99165E-01    rms(broyden)= 0.99148E-01
  rms(prec ) = 0.10281E+00
  weight for this iteration     100.00

 eigenvalues of (default mixing * dielectric matrix)
  average eigenvalue GAMMA=   0.8321
  2.5861  1.2756  1.2756  0.7805  0.7805  0.1003  0.6389  0.5103  0.4526  0.4526
  0.3005

 Free energy of the ion-electron system (eV)
  ---------------------------------------------------
  alpha Z        PSCENC =       537.03050340
  Ewald energy   TEWEN  =     60544.15491456
  -Hartree energ DENC   =    -80613.27471385
  -exchange      EXHF   =         0.00000000
  -V(xc)+E(xc)   XCENC  =       541.32886308
  PAW double counting   =     14544.21607261   -14309.58594816
  entropy T*S    EENTRO =        -0.00293572
  eigenvalues    EBANDS =     -2040.45802540
  atomic energy  EATOM  =     20412.42511142
  Solvation  Ediel_sol  =         0.00000000
  ---------------------------------------------------
  free energy    TOTEN  =      -384.16615805 eV

  energy without entropy =     -384.16322233  energy(sigma->0) =     -384.16517948


--------------------------------------------------------------------------------------------------------




--------------------------------------- Iteration      1(  17)  ---------------------------------------


    POTLOK:  cpu time    0.4239: real time    0.4290
    SETDIJ:  cpu time    0.0260: real time    0.0257
    EDDIAG:  cpu time   15.6956: real time   15.6981
  RMM-DIIS:  cpu time   96.5663: real time   96.5962
    ORTHCH:  cpu time    3.4505: real time    3.4513
       DOS:  cpu time    0.0090: real time    0.0085
    CHARGE:  cpu time    2.8736: real time    2.8741
    MIXING:  cpu time    0.0160: real time    0.0161
    --------------------------------------------
      LOOP:  cpu time  119.0609: real time  119.0989

 eigenvalue-minimisations  : 16456
 total energy-change (2. order) :-0.4221358E+00  (-0.1128150E-01)
 number of electron     310.0000015 magnetization     102.4743376
 augmentation part       88.3229153 magnetization      64.7884429

 DIPCOR: dipole corrections for dipol
 direction  3 min pos   169,
 dipolmoment           0.000000      0.000000     -0.303530 electrons x Angstroem
 Tr[quadrupol]     -4063.486509

 energy correction for charged system         0.000000 eV
 dipol+quadrupol energy correction           -0.006133 eV
 added-field ion interaction          3.896300 eV  (added to PSCEN)


 Broyden mixing:
  rms(total) = 0.79219E-01    rms(broyden)= 0.79203E-01
  rms(prec ) = 0.91597E-01
  weight for this iteration     100.00

 eigenvalues of (default mixing * dielectric matrix)
  average eigenvalue GAMMA=   0.9100
  2.8954  1.5837  1.5837  0.1003  0.7839  0.7839  0.7439  0.7439  0.5099  0.4466
  0.4466  0.2982

 Free energy of the ion-electron system (eV)
  ---------------------------------------------------
  alpha Z        PSCENC =       536.54193158
  Ewald energy   TEWEN  =     60544.15491456
  -Hartree energ DENC   =    -80613.95158201
  -exchange      EXHF   =         0.00000000
  -V(xc)+E(xc)   XCENC  =       540.63039887
  PAW double counting   =     14543.73978805   -14309.37589294
  entropy T*S    EENTRO =        -0.00182414
  eigenvalues    EBANDS =     -2038.75113921
  atomic energy  EATOM  =     20412.42511142
  Solvation  Ediel_sol  =         0.00000000
  ---------------------------------------------------
  free energy    TOTEN  =      -384.58829382 eV

  energy without entropy =     -384.58646968  energy(sigma->0) =     -384.58768577


--------------------------------------------------------------------------------------------------------




--------------------------------------- Iteration      1(  18)  ---------------------------------------


    POTLOK:  cpu time    0.4759: real time    0.4805
    SETDIJ:  cpu time    0.0260: real time    0.0255
    EDDIAG:  cpu time   15.6516: real time   15.6683
  RMM-DIIS:  cpu time   97.2812: real time   97.3473
    ORTHCH:  cpu time    3.4555: real time    3.4558
       DOS:  cpu time    0.0080: real time    0.0082
    CHARGE:  cpu time    2.8816: real time    2.8815
    MIXING:  cpu time    0.0170: real time    0.0167
    --------------------------------------------
      LOOP:  cpu time  119.7968: real time  119.8838

 eigenvalue-minimisations  : 16686
 total energy-change (2. order) :-0.3488392E+00  (-0.8807108E-02)
 number of electron     310.0000015 magnetization     102.3370674
 augmentation part       88.3511120 magnetization      64.7578088

 DIPCOR: dipole corrections for dipol
 direction  3 min pos   170,
 dipolmoment           0.000000      0.000000     -0.315660 electrons x Angstroem
 Tr[quadrupol]     -4063.420891

 energy correction for charged system         0.000000 eV
 dipol+quadrupol energy correction           -0.006633 eV
 added-field ion interaction          2.934610 eV  (added to PSCEN)


 Broyden mixing:
  rms(total) = 0.58832E-01    rms(broyden)= 0.58821E-01
  rms(prec ) = 0.60677E-01
  weight for this iteration     100.00

 eigenvalues of (default mixing * dielectric matrix)
  average eigenvalue GAMMA=   0.9374
  3.2763  1.6221  1.6221  0.9423  0.8284  0.8284  0.1003  0.6351  0.6351  0.5046
  0.4471  0.4471  0.2979

 Free energy of the ion-electron system (eV)
  ---------------------------------------------------
  alpha Z        PSCENC =       535.57974165
  Ewald energy   TEWEN  =     60544.15491456
  -Hartree energ DENC   =    -80613.46055545
  -exchange      EXHF   =         0.00000000
  -V(xc)+E(xc)   XCENC  =       540.28690573
  PAW double counting   =     14541.68310240   -14307.36062851
  entropy T*S    EENTRO =        -0.00254126
  eigenvalues    EBANDS =     -2038.24318357
  atomic energy  EATOM  =     20412.42511142
  Solvation  Ediel_sol  =         0.00000000
  ---------------------------------------------------
  free energy    TOTEN  =      -384.93713303 eV

  energy without entropy =     -384.93459177  energy(sigma->0) =     -384.93628594


--------------------------------------------------------------------------------------------------------




--------------------------------------- Iteration      1(  19)  ---------------------------------------


    POTLOK:  cpu time    0.3489: real time    0.3548
    SETDIJ:  cpu time    0.0260: real time    0.0257
    EDDIAG:  cpu time   15.7736: real time   15.7759
  RMM-DIIS:  cpu time  106.3938: real time  106.4274
    ORTHCH:  cpu time    3.4545: real time    3.4544
       DOS:  cpu time    0.0080: real time    0.0085
    CHARGE:  cpu time    2.8706: real time    2.8705
    MIXING:  cpu time    0.0170: real time    0.0175
    --------------------------------------------
      LOOP:  cpu time  128.8924: real time  128.9347

 eigenvalue-minimisations  : 18245
 total energy-change (2. order) :-0.2257704E+00  (-0.6453026E-02)
 number of electron     310.0000015 magnetization     102.2182926
 augmentation part       88.3647921 magnetization      64.6500614

 DIPCOR: dipole corrections for dipol
 direction  3 min pos   172,
 dipolmoment           0.000000      0.000000     -0.333089 electrons x Angstroem
 Tr[quadrupol]     -4063.263849

 energy correction for charged system         0.000000 eV
 dipol+quadrupol energy correction           -0.007386 eV
 added-field ion interaction          0.738471 eV  (added to PSCEN)


 Broyden mixing:
  rms(total) = 0.47839E-01    rms(broyden)= 0.47836E-01
  rms(prec ) = 0.49755E-01
  weight for this iteration     100.00

 eigenvalues of (default mixing * dielectric matrix)
  average eigenvalue GAMMA=   1.0246
  4.0348  1.8732  1.8732  0.9050  0.9050  0.1003  0.8858  0.7263  0.7263  0.5793
  0.5438  0.4465  0.4465  0.2980

 Free energy of the ion-electron system (eV)
  ---------------------------------------------------
  alpha Z        PSCENC =       533.38285033
  Ewald energy   TEWEN  =     60544.15491456
  -Hartree energ DENC   =    -80611.01826083
  -exchange      EXHF   =         0.00000000
  -V(xc)+E(xc)   XCENC  =       539.87485673
  PAW double counting   =     14538.26805290   -14303.77745638
  entropy T*S    EENTRO =        -0.00162816
  eigenvalues    EBANDS =     -2038.47134397
  atomic energy  EATOM  =     20412.42511142
  Solvation  Ediel_sol  =         0.00000000
  ---------------------------------------------------
  free energy    TOTEN  =      -385.16290341 eV

  energy without entropy =     -385.16127525  energy(sigma->0) =     -385.16236069


--------------------------------------------------------------------------------------------------------




--------------------------------------- Iteration      1(  20)  ---------------------------------------


    POTLOK:  cpu time    0.3539: real time    0.4120
    SETDIJ:  cpu time    0.0260: real time    0.0258
    EDDIAG:  cpu time   15.7786: real time   15.7813
  RMM-DIIS:  cpu time  104.2432: real time  104.2658
    ORTHCH:  cpu time    3.4525: real time    3.4526
       DOS:  cpu time    0.0080: real time    0.0087
    CHARGE:  cpu time    2.8776: real time    2.8779
    MIXING:  cpu time    0.0190: real time    0.0186
    --------------------------------------------
      LOOP:  cpu time  126.7587: real time  126.8426

 eigenvalue-minimisations  : 17944
 total energy-change (2. order) :-0.2318585E+00  (-0.8203851E-02)
 number of electron     310.0000015 magnetization     102.1458283
 augmentation part       88.3746632 magnetization      64.6074156

 DIPCOR: dipole corrections for dipol
 direction  3 min pos   176,
 dipolmoment           0.000000      0.000000     -0.340154 electrons x Angstroem
 Tr[quadrupol]     -4062.984789

 energy correction for charged system         0.000000 eV
 dipol+quadrupol energy correction           -0.007703 eV
 added-field ion interaction         -4.062255 eV  (added to PSCEN)


 Broyden mixing:
  rms(total) = 0.40620E-01    rms(broyden)= 0.40618E-01
  rms(prec ) = 0.42452E-01
  weight for this iteration     100.00

 eigenvalues of (default mixing * dielectric matrix)
  average eigenvalue GAMMA=   1.0983
  4.8646  2.0174  2.0174  1.0706  1.0706  0.8056  0.8056  0.1003  0.6953  0.6953
  0.6307  0.5092  0.4468  0.4468  0.2980

 Free energy of the ion-electron system (eV)
  ---------------------------------------------------
  alpha Z        PSCENC =       528.58180786
  Ewald energy   TEWEN  =     60544.15491456
  -Hartree energ DENC   =    -80609.26897256
  -exchange      EXHF   =         0.00000000
  -V(xc)+E(xc)   XCENC  =       539.57785823
  PAW double counting   =     14536.79279395   -14302.14953193
  entropy T*S    EENTRO =        -0.00113751
  eigenvalues    EBANDS =     -2035.50760595
  atomic energy  EATOM  =     20412.42511142
  Solvation  Ediel_sol  =         0.00000000
  ---------------------------------------------------
  free energy    TOTEN  =      -385.39476193 eV

  energy without entropy =     -385.39362442  energy(sigma->0) =     -385.39438276


--------------------------------------------------------------------------------------------------------




--------------------------------------- Iteration      1(  21)  ---------------------------------------


    POTLOK:  cpu time    0.3120: real time    0.3162
    SETDIJ:  cpu time    0.0260: real time    0.0256
    EDDIAG:  cpu time   15.8046: real time   15.8073
  RMM-DIIS:  cpu time  106.0759: real time  106.0913
    ORTHCH:  cpu time    3.4475: real time    3.4489
       DOS:  cpu time    0.0090: real time    0.0086
    CHARGE:  cpu time    2.8506: real time    2.8511
    MIXING:  cpu time    0.0200: real time    0.0194
    --------------------------------------------
      LOOP:  cpu time  128.5455: real time  128.5685

 eigenvalue-minimisations  : 18164
 total energy-change (2. order) :-0.1321081E+00  (-0.3914383E-02)
 number of electron     310.0000015 magnetization     102.0733925
 augmentation part       88.3705900 magnetization      64.5636385

 DIPCOR: dipole corrections for dipol
 direction  3 min pos   181,
 dipolmoment           0.000000      0.000000     -0.338271 electrons x Angstroem
 Tr[quadrupol]     -4062.655862

 energy correction for charged system         0.000000 eV
 dipol+quadrupol energy correction           -0.007617 eV
 added-field ion interaction        -10.026935 eV  (added to PSCEN)


 Broyden mixing:
  rms(total) = 0.33063E-01    rms(broyden)= 0.33061E-01
  rms(prec ) = 0.35635E-01
  weight for this iteration     100.00

 eigenvalues of (default mixing * dielectric matrix)
  average eigenvalue GAMMA=   1.1549
  5.4914  2.1684  2.1684  1.2419  1.2419  0.8535  0.8535  0.1003  0.7155  0.7155
  0.6091  0.6091  0.5182  0.4468  0.4468  0.2980

 Free energy of the ion-electron system (eV)
  ---------------------------------------------------
  alpha Z        PSCENC =       522.61721273
  Ewald energy   TEWEN  =     60544.15491456
  -Hartree energ DENC   =    -80608.33072976
  -exchange      EXHF   =         0.00000000
  -V(xc)+E(xc)   XCENC  =       539.35220755
  PAW double counting   =     14536.83533427   -14302.10087183
  entropy T*S    EENTRO =        -0.00119448
  eigenvalues    EBANDS =     -2030.47885453
  atomic energy  EATOM  =     20412.42511142
  Solvation  Ediel_sol  =         0.00000000
  ---------------------------------------------------
  free energy    TOTEN  =      -385.52687007 eV

  energy without entropy =     -385.52567559  energy(sigma->0) =     -385.52647191


--------------------------------------------------------------------------------------------------------




--------------------------------------- Iteration      1(  22)  ---------------------------------------


    POTLOK:  cpu time    0.3090: real time    0.3150
    SETDIJ:  cpu time    0.0260: real time    0.0257
    EDDIAG:  cpu time   15.7796: real time   15.7818
  RMM-DIIS:  cpu time  104.5731: real time  104.5930
    ORTHCH:  cpu time    3.4465: real time    3.4475
       DOS:  cpu time    0.0090: real time    0.0086
    CHARGE:  cpu time    2.8216: real time    2.8218
    MIXING:  cpu time    0.0210: real time    0.0208
    --------------------------------------------
      LOOP:  cpu time  126.9857: real time  127.0141

 eigenvalue-minimisations  : 18004
 total energy-change (2. order) :-0.7148588E-01  (-0.2192444E-02)
 number of electron     310.0000015 magnetization     102.0349329
 augmentation part       88.3405667 magnetization      64.4631098

 DIPCOR: dipole corrections for dipol
 direction  3 min pos   173,
 dipolmoment           0.000000      0.000000     -0.359717 electrons x Angstroem
 Tr[quadrupol]     -4063.089343

 energy correction for charged system         0.000000 eV
 dipol+quadrupol energy correction           -0.008614 eV
 added-field ion interaction         -0.475841 eV  (added to PSCEN)


 Broyden mixing:
  rms(total) = 0.25483E-01    rms(broyden)= 0.25461E-01
  rms(prec ) = 0.34979E-01
  weight for this iteration     100.00

 eigenvalues of (default mixing * dielectric matrix)
  average eigenvalue GAMMA=   1.2031
  6.3695  2.3340  2.0906  1.3811  1.3811  0.1003  0.8729  0.8729  0.7868  0.7253
  0.7253  0.2980  0.4469  0.4469  0.5554  0.5554  0.5099

 Free energy of the ion-electron system (eV)
  ---------------------------------------------------
  alpha Z        PSCENC =       532.16730970
  Ewald energy   TEWEN  =     60544.15491456
  -Hartree energ DENC   =    -80607.06334866
  -exchange      EXHF   =         0.00000000
  -V(xc)+E(xc)   XCENC  =       539.14819053
  PAW double counting   =     14537.32592812   -14302.52235131
  entropy T*S    EENTRO =        -0.00085163
  eigenvalues    EBANDS =     -2041.23325869
  atomic energy  EATOM  =     20412.42511142
  Solvation  Ediel_sol  =         0.00000000
[...]




--------------------------------------- Iteration     15(  11)  ---------------------------------------


    POTLOK:  cpu time    0.3279: real time    0.3532
    SETDIJ:  cpu time    0.0260: real time    0.0256
    EDDIAG:  cpu time   15.7096: real time   15.7131
  RMM-DIIS:  cpu time   84.3122: real time   84.3265
    ORTHCH:  cpu time    3.4475: real time    3.4477
       DOS:  cpu time    0.0080: real time    0.0083
    CHARGE:  cpu time    2.7566: real time    2.7571
    MIXING:  cpu time    0.0150: real time    0.0143
    --------------------------------------------
      LOOP:  cpu time  106.6028: real time  106.6458

 eigenvalue-minimisations  : 14358
 total energy-change (2. order) :-0.9271009E-03  (-0.4501795E-05)
 number of electron     309.9999931 magnetization     102.0004095
 augmentation part       88.5008959 magnetization      64.7582824

 DIPCOR: dipole corrections for dipol
 direction  3 min pos   177,
 dipolmoment           0.000000      0.000000     -0.344971 electrons x Angstroem
 Tr[quadrupol]     -4050.402906

 energy correction for charged system         0.000000 eV
 dipol+quadrupol energy correction           -0.007922 eV
 added-field ion interaction         -5.350911 eV  (added to PSCEN)


 eigenvalues of (default mixing * dielectric matrix)
  average eigenvalue GAMMA=   1.0614
  3.0338  1.7029  0.1295  1.1305  1.1305  0.8146  0.8146  0.6761  0.6761  0.5053

  free energy =  -0.388546860991E+03  energy without entropy=  -0.388536895899E+03


--------------------------------------------------------------------------------------------------------




--------------------------------------- Iteration     15(  12)  ---------------------------------------


    POTLOK:  cpu time    0.4199: real time    0.4255
    SETDIJ:  cpu time    0.0260: real time    0.0257
    EDDIAG:  cpu time   15.6056: real time   15.6082
  RMM-DIIS:  cpu time   81.0247: real time   81.0399
    ORTHCH:  cpu time    3.4465: real time    3.4468
       DOS:  cpu time    0.0080: real time    0.0084
    CHARGE:  cpu time    2.7866: real time    2.7871
    MIXING:  cpu time    0.0150: real time    0.0151
    --------------------------------------------
      LOOP:  cpu time  103.3323: real time  103.3566

 eigenvalue-minimisations  : 13749
 total energy-change (2. order) :-0.7575632E-03  (-0.3114218E-05)
 number of electron     309.9999931 magnetization     102.0003480
 augmentation part       88.5005857 magnetization      64.7580475

 DIPCOR: dipole corrections for dipol
 direction  3 min pos   177,
 dipolmoment           0.000000      0.000000     -0.344832 electrons x Angstroem
 Tr[quadrupol]     -4050.403052

 energy correction for charged system         0.000000 eV
 dipol+quadrupol energy correction           -0.007916 eV
 added-field ion interaction         -5.348751 eV  (added to PSCEN)


 eigenvalues of (default mixing * dielectric matrix)
  average eigenvalue GAMMA=   1.1886
  3.9259  1.8159  1.8159  0.1295  1.1600  0.9401  0.5083  0.7371  0.7371  0.6522
  0.6522

  free energy =  -0.388547618554E+03  energy without entropy=  -0.388537661470E+03


--------------------------------------------------------------------------------------------------------




--------------------------------------- Iteration     15(  13)  ---------------------------------------


    POTLOK:  cpu time    0.3309: real time    0.3533
    SETDIJ:  cpu time    0.0260: real time    0.0256
    EDDIAG:  cpu time   15.5146: real time   15.5166
  RMM-DIIS:  cpu time   86.6578: real time   86.6715
    ORTHCH:  cpu time    3.4445: real time    3.4445
       DOS:  cpu time    0.0080: real time    0.0084
    CHARGE:  cpu time    2.7936: real time    2.7936
    MIXING:  cpu time    0.0150: real time    0.0159
    --------------------------------------------
      LOOP:  cpu time  108.7915: real time  108.8294

 eigenvalue-minimisations  : 14782
 total energy-change (2. order) :-0.9114269E-03  (-0.6270254E-05)
 number of electron     309.9999931 magnetization     102.0003111
 augmentation part       88.5003111 magnetization      64.7578811

 DIPCOR: dipole corrections for dipol
 direction  3 min pos   177,
 dipolmoment           0.000000      0.000000     -0.344644 electrons x Angstroem
 Tr[quadrupol]     -4050.402806

 energy correction for charged system         0.000000 eV
 dipol+quadrupol energy correction           -0.007907 eV
 added-field ion interaction         -5.345840 eV  (added to PSCEN)


 eigenvalues of (default mixing * dielectric matrix)
  average eigenvalue GAMMA=   1.3032
  5.4076  2.2341  1.7787  0.1295  1.0508  1.0508  0.7807  0.7807  0.5119  0.6425
  0.6425  0.6288

  free energy =  -0.388548529981E+03  energy without entropy=  -0.388538578992E+03


--------------------------------------------------------------------------------------------------------




--------------------------------------- Iteration     15(  14)  ---------------------------------------


    POTLOK:  cpu time    0.4849: real time    0.4891
    SETDIJ:  cpu time    0.0250: real time    0.0257
    EDDIAG:  cpu time   15.6516: real time   15.6533
  RMM-DIIS:  cpu time   82.0645: real time   82.0774
    ORTHCH:  cpu time    3.4475: real time    3.4484
       DOS:  cpu time    0.0090: real time    0.0085
    CHARGE:  cpu time    2.7936: real time    2.7940
    MIXING:  cpu time    0.0170: real time    0.0168
    --------------------------------------------
      LOOP:  cpu time  104.4921: real time  104.5132

 eigenvalue-minimisations  : 13962
 total energy-change (2. order) :-0.3056917E-03  (-0.2365658E-05)
 number of electron     309.9999931 magnetization     102.0002898
 augmentation part       88.5003758 magnetization      64.7579552

 DIPCOR: dipole corrections for dipol
 direction  3 min pos   177,
 dipolmoment           0.000000      0.000000     -0.344525 electrons x Angstroem
 Tr[quadrupol]     -4050.401829

 energy correction for charged system         0.000000 eV
 dipol+quadrupol energy correction           -0.007902 eV
 added-field ion interaction         -5.343983 eV  (added to PSCEN)


 eigenvalues of (default mixing * dielectric matrix)
  average eigenvalue GAMMA=   1.3698
  6.4963  2.4560  1.4769  1.4769  0.1295  0.9527  0.9527  0.7274  0.7274  0.7276
  0.5120  0.5860  0.5860

  free energy =  -0.388548835673E+03  energy without entropy=  -0.388538892010E+03


--------------------------------------------------------------------------------------------------------




--------------------------------------- Iteration     15(  15)  ---------------------------------------


    POTLOK:  cpu time    0.3889: real time    0.4915
    SETDIJ:  cpu time    0.0260: real time    0.0257
    EDDIAG:  cpu time   15.5446: real time   15.5534
  RMM-DIIS:  cpu time   72.1500: real time   72.2068
    ORTHCH:  cpu time    3.4395: real time    3.4396
       DOS:  cpu time    0.0080: real time    0.0086
    CHARGE:  cpu time    2.7916: real time    2.7921
    MIXING:  cpu time    0.0180: real time    0.0175
    --------------------------------------------
      LOOP:  cpu time   94.3667: real time   94.5352

 eigenvalue-minimisations  : 12221
 total energy-change (2. order) :-0.8327638E-04  (-0.5327342E-06)
 number of electron     309.9999931 magnetization     102.0002769
 augmentation part       88.5004311 magnetization      64.7579986

 DIPCOR: dipole corrections for dipol
 direction  3 min pos   177,
 dipolmoment           0.000000      0.000000     -0.344478 electrons x Angstroem
 Tr[quadrupol]     -4050.400867

 energy correction for charged system         0.000000 eV
 dipol+quadrupol energy correction           -0.007900 eV
 added-field ion interaction         -5.343257 eV  (added to PSCEN)


 eigenvalues of (default mixing * dielectric matrix)
  average eigenvalue GAMMA=   1.3938
  7.2663  2.5135  1.6923  1.2383  1.2383  0.1295  0.8317  0.8317  0.6933  0.6933
  0.6973  0.5123  0.5876  0.5876

  free energy =  -0.388548918949E+03  energy without entropy=  -0.388538977539E+03


--------------------------------------------------------------------------------------------------------




--------------------------------------- Iteration     15(  16)  ---------------------------------------


    POTLOK:  cpu time    0.4539: real time    0.4596
    SETDIJ:  cpu time    0.0260: real time    0.0257
    EDDIAG:  cpu time   15.6126: real time   15.6151
  RMM-DIIS:  cpu time   66.0680: real time   66.0778
    ORTHCH:  cpu time    3.4455: real time    3.4455
       DOS:  cpu time    0.0080: real time    0.0083
    CHARGE:  cpu time    2.7656: real time    2.7665
    MIXING:  cpu time    0.0190: real time    0.0185
    --------------------------------------------
      LOOP:  cpu time   88.3986: real time   88.4170

 eigenvalue-minimisations  : 10957
 total energy-change (2. order) :-0.2531666E-04  (-0.1469854E-06)
 number of electron     309.9999931 magnetization     102.0002663
 augmentation part       88.5003826 magnetization      64.7579444

 DIPCOR: dipole corrections for dipol
 direction  3 min pos   177,
 dipolmoment           0.000000      0.000000     -0.344451 electrons x Angstroem
 Tr[quadrupol]     -4050.400094

 energy correction for charged system         0.000000 eV
 dipol+quadrupol energy correction           -0.007898 eV
 added-field ion interaction         -5.342843 eV  (added to PSCEN)


 eigenvalues of (default mixing * dielectric matrix)
  average eigenvalue GAMMA=   1.3721
  7.4653  2.5814  1.5106  1.5106  0.1295  1.0773  1.0773  0.7996  0.7996  0.6962
  0.6962  0.6322  0.5118  0.5473  0.5473

  free energy =  -0.388548944266E+03  energy without entropy=  -0.388539003951E+03


--------------------------------------------------------------------------------------------------------




--------------------------------------- Iteration     15(  17)  ---------------------------------------


    POTLOK:  cpu time    0.3409: real time    0.3474
    SETDIJ:  cpu time    0.0260: real time    0.0256
    EDDIAG:  cpu time   15.6116: real time   15.6140
  RMM-DIIS:  cpu time   63.0274: real time   63.0370
    ORTHCH:  cpu time    3.4475: real time    3.4478
       DOS:  cpu time    0.0080: real time    0.0085
    CHARGE:  cpu time    2.7796: real time    2.7800
    MIXING:  cpu time    0.0200: real time    0.0194
    --------------------------------------------
      LOOP:  cpu time   85.2610: real time   85.2797

 eigenvalue-minimisations  : 10118
 total energy-change (2. order) :-0.1234848E-04  (-0.4768751E-07)
 number of electron     309.9999931 magnetization     102.0002537
 augmentation part       88.5003914 magnetization      64.7579366

 DIPCOR: dipole corrections for dipol
 direction  3 min pos   177,
 dipolmoment           0.000000      0.000000     -0.344436 electrons x Angstroem
 Tr[quadrupol]     -4050.399378

 energy correction for charged system         0.000000 eV
 dipol+quadrupol energy correction           -0.007898 eV
 added-field ion interaction         -5.342601 eV  (added to PSCEN)


 eigenvalues of (default mixing * dielectric matrix)
  average eigenvalue GAMMA=   1.3635
  7.5735  2.6143  1.7744  1.3800  1.3800  0.1295  1.0131  0.8541  0.8541  0.7316
  0.7002  0.7002  0.5993  0.5133  0.4989  0.4989

  free energy =  -0.388548956614E+03  energy without entropy=  -0.388539017033E+03


--------------------------------------------------------------------------------------------------------




--------------------------------------- Iteration     15(  18)  ---------------------------------------


    POTLOK:  cpu time    0.3150: real time    0.3201
    SETDIJ:  cpu time    0.0250: real time    0.0256
    EDDIAG:  cpu time   15.5786: real time   15.5889
  RMM-DIIS:  cpu time   62.3255: real time   62.3353
    ORTHCH:  cpu time    3.4475: real time    3.4478
       DOS:  cpu time    0.0080: real time    0.0079
    CHARGE:  cpu time    2.7796: real time    2.7798
    MIXING:  cpu time    0.0200: real time    0.0203
    --------------------------------------------
      LOOP:  cpu time   84.4992: real time   84.5257

 eigenvalue-minimisations  :  9934
 total energy-change (2. order) :-0.1095596E-04  (-0.2478690E-07)
 number of electron     309.9999931 magnetization     102.0002418
 augmentation part       88.5003925 magnetization      64.7579295

 DIPCOR: dipole corrections for dipol
 direction  3 min pos   177,
 dipolmoment           0.000000      0.000000     -0.344408 electrons x Angstroem
 Tr[quadrupol]     -4050.398391

 energy correction for charged system         0.000000 eV
 dipol+quadrupol energy correction           -0.007896 eV
 added-field ion interaction         -5.342172 eV  (added to PSCEN)


 eigenvalues of (default mixing * dielectric matrix)
  average eigenvalue GAMMA=   1.3806
  7.5989  2.7265  2.2056  1.5013  1.5013  0.1295  0.9613  0.9613  0.8869  0.8869
  0.6865  0.6865  0.6539  0.5714  0.5714  0.5091  0.4320

  free energy =  -0.388548967570E+03  energy without entropy=  -0.388539028451E+03


--------------------------------------------------------------------------------------------------------




--------------------------------------- Iteration     15(  19)  ---------------------------------------


    POTLOK:  cpu time    0.3090: real time    0.3229
    SETDIJ:  cpu time    0.0260: real time    0.0256
    EDDIAG:  cpu time   15.6896: real time   15.6996
  RMM-DIIS:  cpu time   60.5788: real time   60.5883
    ORTHCH:  cpu time    3.4445: real time    3.4450
       DOS:  cpu time    0.0080: real time    0.0085
    CHARGE:  cpu time    2.7956: real time    2.7957
    MIXING:  cpu time    0.0210: real time    0.0212
    --------------------------------------------
      LOOP:  cpu time   82.8724: real time   82.9068

 eigenvalue-minimisations  :  8646
 total energy-change (2. order) :-0.7255112E-05  (-0.1095271E-07)
 number of electron     309.9999931 magnetization     102.0002331
 augmentation part       88.5004002 magnetization      64.7579269

 DIPCOR: dipole corrections for dipol
 direction  3 min pos   177,
 dipolmoment           0.000000      0.000000     -0.344394 electrons x Angstroem
 Tr[quadrupol]     -4050.397441

 energy correction for charged system         0.000000 eV
 dipol+quadrupol energy correction           -0.007896 eV
 added-field ion interaction         -5.341962 eV  (added to PSCEN)


 eigenvalues of (default mixing * dielectric matrix)
  average eigenvalue GAMMA=   1.3685
  7.6039  2.8986  2.3814  1.4785  1.4785  0.1295  1.0801  1.0801  0.8655  0.8655
  0.7194  0.7194  0.6520  0.6520  0.5113  0.5617  0.5617  0.3934

  free energy =  -0.388548974825E+03  energy without entropy=  -0.388539035935E+03


--------------------------------------------------------------------------------------------------------




--------------------------------------- Iteration     15(  20)  ---------------------------------------


    POTLOK:  cpu time    0.3489: real time    0.3533
    SETDIJ:  cpu time    0.0260: real time    0.0257
    EDDIAG:  cpu time   15.6056: real time   15.6098
  RMM-DIIS:  cpu time   59.6469: real time   59.7695
    ORTHCH:  cpu time    3.4615: real time    3.4616
       DOS:  cpu time    0.0080: real time    0.0082
    CHARGE:  cpu time    2.7856: real time    2.7856
    MIXING:  cpu time    0.0220: real time    0.0225
    --------------------------------------------
      LOOP:  cpu time   81.9045: real time   82.0362

 eigenvalue-minimisations  :  8247
 total energy-change (2. order) :-0.4265428E-05  (-0.6323066E-08)
 number of electron     309.9999931 magnetization     102.0002244
 augmentation part       88.5003738 magnetization      64.7579021

 DIPCOR: dipole corrections for dipol
 direction  3 min pos   177,
 dipolmoment           0.000000      0.000000     -0.344393 electrons x Angstroem
 Tr[quadrupol]     -4050.396711

 energy correction for charged system         0.000000 eV
 dipol+quadrupol energy correction           -0.007896 eV
 added-field ion interaction         -5.341942 eV  (added to PSCEN)


 eigenvalues of (default mixing * dielectric matrix)
  average eigenvalue GAMMA=   1.3681
  7.6245  3.1352  2.5011  1.6020  1.6020  1.1536  1.1536  0.1295  0.8472  0.8472
  0.7626  0.7626  0.6653  0.6221  0.6221  0.5122  0.5409  0.5409  0.3703

  free energy =  -0.388548979091E+03  energy without entropy=  -0.388539040568E+03


--------------------------------------------------------------------------------------------------------




--------------------------------------- Iteration     15(  21)  ---------------------------------------


    POTLOK:  cpu time    0.3469: real time    0.3509
    SETDIJ:  cpu time    0.0260: real time    0.0255
    EDDIAG:  cpu time   15.5496: real time   15.5530
  RMM-DIIS:  cpu time   58.4221: real time   58.4327
    ORTHCH:  cpu time    3.4515: real time    3.4514
       DOS:  cpu time    0.0090: real time    0.0086
    CHARGE:  cpu time    2.7656: real time    2.7668
    MIXING:  cpu time    0.0240: real time    0.0236
    --------------------------------------------
      LOOP:  cpu time   80.5947: real time   80.6124

 eigenvalue-minimisations  :  7208
 total energy-change (2. order) :-0.3962232E-05  (-0.3907691E-08)
 number of electron     309.9999931 magnetization     102.0002162
 augmentation part       88.5003754 magnetization      64.7578928

 DIPCOR: dipole corrections for dipol
 direction  3 min pos   177,
 dipolmoment           0.000000      0.000000     -0.344391 electrons x Angstroem
 Tr[quadrupol]     -4050.395942

 energy correction for charged system         0.000000 eV
 dipol+quadrupol energy correction           -0.007896 eV
 added-field ion interaction         -5.341909 eV  (added to PSCEN)


 eigenvalues of (default mixing * dielectric matrix)
  average eigenvalue GAMMA=   1.3946
  7.6306  3.6743  2.5442  1.7747  1.7747  1.2211  1.2211  0.1295  0.8796  0.8796
  0.8121  0.8121  0.6851  0.6851  0.6224  0.5140  0.5712  0.5471  0.5471  0.3665

  free energy =  -0.388548983053E+03  energy without entropy=  -0.388539044743E+03


--------------------------------------------------------------------------------------------------------




--------------------------------------- Iteration     15(  22)  ---------------------------------------


    POTLOK:  cpu time    0.4479: real time    0.4525
    SETDIJ:  cpu time    0.0260: real time    0.0256
    EDDIAG:  cpu time   15.5896: real time   15.5925
  RMM-DIIS:  cpu time   57.4013: real time   57.4101
    ORTHCH:  cpu time    3.4475: real time    3.4484
       DOS:  cpu time    0.0080: real time    0.0084
    CHARGE:  cpu time    2.7966: real time    2.7964
    MIXING:  cpu time    0.0240: real time    0.0244
    --------------------------------------------
      LOOP:  cpu time   79.7409: real time   79.7584

 eigenvalue-minimisations  :  6672
 total energy-change (2. order) :-0.3567478E-05  (-0.2521979E-08)
 number of electron     309.9999931 magnetization     102.0002131
 augmentation part       88.5003722 magnetization      64.7578901

 DIPCOR: dipole corrections for dipol
 direction  3 min pos   177,
 dipolmoment           0.000000      0.000000     -0.344391 electrons x Angstroem
 Tr[quadrupol]     -4050.395163

 energy correction for charged system         0.000000 eV
 dipol+quadrupol energy correction           -0.007896 eV
 added-field ion interaction         -5.341905 eV  (added to PSCEN)


 eigenvalues of (default mixing * dielectric matrix)
  average eigenvalue GAMMA=   1.4209
  7.6016  4.5154  2.6159  2.1793  1.6150  1.2142  1.2142  0.1295  0.9998  0.8483
  0.8483  0.8529  0.7247  0.7247  0.6604  0.6213  0.5610  0.5610  0.5090  0.4814
  0.3601

  free energy =  -0.388548986621E+03  energy without entropy=  -0.388539048392E+03


--------------------------------------------------------------------------------------------------------




--------------------------------------- Iteration     15(  23)  ---------------------------------------


    POTLOK:  cpu time    0.3919: real time    0.5967
    SETDIJ:  cpu time    0.0260: real time    0.0258
